  ABINIT 
  
  Give name for formatted input file: 
AlAs.in
  Give name for formatted output file:
AlAs.out
  Give root name for generic input files:
alas-i
  Give root name for generic output files:
alas-o
  Give root name for generic temporary files:
alas-r

 herald :  WARNING -
  The starting date is more than 3 years after the initial release
  of this version of ABINIT, namely Aug 2013.
  This version of ABINIT is not supported anymore.
  Action : please, switch to a more recent version of ABINIT.

.Version 7.4.1 of ABINIT 
.(MPI version, prepared for a x86_64_linux_gnu5.4 computer) 

.Copyright (C) 1998-2013 ABINIT group . 
 ABINIT comes with ABSOLUTELY NO WARRANTY.
 It is free software, and you are welcome to redistribute it
 under certain conditions (GNU General Public License,
 see ~abinit/COPYING or http://www.gnu.org/copyleft/gpl.txt).

 ABINIT is a project of the Universite Catholique de Louvain,
 Corning Inc. and other collaborators, see ~abinit/doc/developers/contributors.txt .
 Please read ~abinit/doc/users/acknowledgments.html for suggested
 acknowledgments of the ABINIT effort.
 For more information, see http://www.abinit.org .

.Starting date : Thu 16 Nov 2017.
- ( at 17h26 )
  

 herald :  WARNING -
  The starting date is more than 3 years after the initial release
  of this version of ABINIT, namely Aug 2013.
  This version of ABINIT is not supported anymore.
  Action : please, switch to a more recent version of ABINIT.

 herald :  WARNING -
  The starting date is more than 3 years after the initial release
  of this version of ABINIT, namely Aug 2013.
  This version of ABINIT is not supported anymore.
  Action : please, switch to a more recent version of ABINIT.

 ++++++++++++++++++++++++++++++++++++++++++++++++++++++++++++++++++++++++++++++

 === Build Information === 
  Version       : 7.4.1
  Build target  : x86_64_linux_gnu5.4
  Build date    : 20171116

 === Compiler Suite === 
  C compiler       : gnu5.4
  CFLAGS           :  -g -O2 -mtune=native -march=native
  C++ compiler     : gnu5.4
  CXXFLAGS         :  -g -O2 -mtune=native -march=native
  Fortran compiler : gnu5.4
  FCFLAGS          :  -g -ffree-line-length-none
  FC_LDFLAGS       : 

 === Optimizations === 
  Debug level        : basic
  Optimization level : standard
  Architecture       : unknown_unknown

 === MPI === 
  Parallel build : yes
  Parallel I/O   : auto
  Time tracing   : no
  GPU support    : no

 === Connectors / Fallbacks === 
  Connectors on : yes
  Fallbacks on  : yes
  DFT flavor    : none
  FFT flavor    : none
  LINALG flavor : netlib
  MATH flavor   : none
  TIMER flavor  : abinit
  TRIO flavor   : none

 === Experimental features === 
  Bindings            : no
  Exports             : no
  GW double-precision : no

 ++++++++++++++++++++++++++++++++++++++++++++++++++++++++++++++++++++++++++++++


 ++++++++++++++++++++++++++++++++++++++++++++++++++++++++++++++++++++++++++++++
 Default optimizations:
   -O2 -mtune=native -march=native


 ++++++++++++++++++++++++++++++++++++++++++++++++++++++++++++++++++++++++++++++


 ++++++++++++++++++++++++++++++++++++++++++++++++++++++++++++++++++++++++++++++
 CPP options activated during the build:

                    CC_GNU                   CXX_GNU                    FC_GNU

 HAVE_FC_ALLOCATABLE_DT...      HAVE_FC_COMMAND_LINE        HAVE_FC_CONTIGUOUS

           HAVE_FC_CPUTIME              HAVE_FC_EXIT             HAVE_FC_FLUSH

             HAVE_FC_GAMMA            HAVE_FC_GETENV          HAVE_FC_INT_QUAD

             HAVE_FC_IOMSG     HAVE_FC_ISO_C_BINDING        HAVE_FC_LONG_LINES

              HAVE_FC_NULL         HAVE_FC_STREAM_IO          HAVE_FORTRAN2003

               HAVE_LINALG        HAVE_LINALG_SERIAL                  HAVE_MPI

                 HAVE_MPI2               HAVE_MPI_IO HAVE_MPI_TYPE_CREATE_S...

                HAVE_NUMPY             HAVE_OS_LINUX                HAVE_TIMER

         HAVE_TIMER_ABINIT            HAVE_TIMER_MPI         HAVE_TIMER_SERIAL

 ++++++++++++++++++++++++++++++++++++++++++++++++++++++++++++++++++++++++++++++

- input  file    -> AlAs.in
- output file    -> AlAs.out
- root for input  files -> alas-i
- root for output files -> alas-o

-instrng :    58 lines of input have been read from file AlAs.in


 iofn2 : Please give name of formatted atomic psp file
 iofn2 : for atom type   1 , psp file is ./13-Al.LDA.fhi

 iofn2 : Please give name of formatted atomic psp file
 iofn2 : for atom type   2 , psp file is ./33-As.LDA.fhi
  read the values zionpsp=  3.0 , pspcod=   6 , lmax=   3
  read the values zionpsp=  5.0 , pspcod=   6 , lmax=   3

 inpspheads : deduce mpsang  =   4, n1xccc  =   0.

 invars1m : enter jdtset=     1
 invars1 : treat image number     1

 symlatt : the Bravais lattice is cF (face-centered cubic)
  xred   is defined in input file
 ingeo : takes atomic coordinates from input array xred

 symlatt : the Bravais lattice is cF (face-centered cubic)

 symlatt : the Bravais lattice is cF (face-centered cubic)
 symspgr : the symmetry operation no.   1 is the identity
 symaxes : the symmetry operation no.   2 is a 2-axis
 symaxes : the symmetry operation no.   3 is a 2-axis
 symaxes : the symmetry operation no.   4 is a 2-axis
 symplanes : the symmetry operation no.   5 is a mirror plane
 symspgr : the symmetry operation no.   6 is a -4 axis
 symplanes : the symmetry operation no.   7 is a mirror plane
 symspgr : the symmetry operation no.   8 is a -4 axis
 symaxes : the symmetry operation no.   9 is a 3-axis
 symaxes : the symmetry operation no.  10 is a 3-axis
 symaxes : the symmetry operation no.  11 is a 3-axis
 symaxes : the symmetry operation no.  12 is a 3-axis
 symplanes : the symmetry operation no.  13 is a mirror plane
 symspgr : the symmetry operation no.  14 is a -4 axis
 symspgr : the symmetry operation no.  15 is a -4 axis
 symplanes : the symmetry operation no.  16 is a mirror plane
 symaxes : the symmetry operation no.  17 is a 3-axis
 symaxes : the symmetry operation no.  18 is a 3-axis
 symaxes : the symmetry operation no.  19 is a 3-axis
 symaxes : the symmetry operation no.  20 is a 3-axis
 symplanes : the symmetry operation no.  21 is a mirror plane
 symplanes : the symmetry operation no.  22 is a mirror plane
 symspgr : the symmetry operation no.  23 is a -4 axis
 symspgr : the symmetry operation no.  24 is a -4 axis
 symspgr : the symmetry operation no.  25 is a pure translation
 symaxes : the symmetry operation no.  26 is a 2_1-axis
 symaxes : the symmetry operation no.  27 is a 2_1-axis
 symaxes : the symmetry operation no.  28 is a 2-axis
 symplanes : the symmetry operation no.  29 is a tertiary m plane
 symspgr : the symmetry operation no.  30 is a -4 axis
 symplanes : the symmetry operation no.  31 is a tertiary m plane
 symspgr : the symmetry operation no.  32 is a -4 axis
 symaxes : the symmetry operation no.  33 is a 3, 3_1 or 3_2 axis
 symaxes : the symmetry operation no.  34 is a 3-axis
 symaxes : the symmetry operation no.  35 is a 3, 3_1 or 3_2 axis
 symaxes : the symmetry operation no.  36 is a 3-axis
 symplanes : the symmetry operation no.  37 is a tertiary m plane
 symspgr : the symmetry operation no.  38 is a -4 axis
 symspgr : the symmetry operation no.  39 is a -4 axis
 symplanes : the symmetry operation no.  40 is a mirror plane
 symaxes : the symmetry operation no.  41 is a 3, 3_1 or 3_2 axis
 symaxes : the symmetry operation no.  42 is a 3, 3_1 or 3_2 axis
 symaxes : the symmetry operation no.  43 is a 3-axis
 symaxes : the symmetry operation no.  44 is a 3-axis
 symplanes : the symmetry operation no.  45 is a tertiary m plane
 symplanes : the symmetry operation no.  46 is a tertiary m plane
 symspgr : the symmetry operation no.  47 is a -4 axis
 symspgr : the symmetry operation no.  48 is a -4 axis
 symspgr : the symmetry operation no.  49 is a pure translation
 symaxes : the symmetry operation no.  50 is a 2-axis
 symaxes : the symmetry operation no.  51 is a 2_1-axis
 symaxes : the symmetry operation no.  52 is a 2_1-axis
 symplanes : the symmetry operation no.  53 is a tertiary m plane
 symspgr : the symmetry operation no.  54 is a -4 axis
 symplanes : the symmetry operation no.  55 is a tertiary m plane
 symspgr : the symmetry operation no.  56 is a -4 axis
 symaxes : the symmetry operation no.  57 is a 3, 3_1 or 3_2 axis
 symaxes : the symmetry operation no.  58 is a 3-axis
 symaxes : the symmetry operation no.  59 is a 3-axis
 symaxes : the symmetry operation no.  60 is a 3, 3_1 or 3_2 axis
 symplanes : the symmetry operation no.  61 is a tertiary m plane
 symspgr : the symmetry operation no.  62 is a -4 axis
 symspgr : the symmetry operation no.  63 is a -4 axis
 symplanes : the symmetry operation no.  64 is a tertiary m plane
 symaxes : the symmetry operation no.  65 is a 3, 3_1 or 3_2 axis
 symaxes : the symmetry operation no.  66 is a 3-axis
 symaxes : the symmetry operation no.  67 is a 3, 3_1 or 3_2 axis
 symaxes : the symmetry operation no.  68 is a 3-axis
 symplanes : the symmetry operation no.  69 is a tertiary m plane
 symplanes : the symmetry operation no.  70 is a mirror plane
 symspgr : the symmetry operation no.  71 is a -4 axis
 symspgr : the symmetry operation no.  72 is a -4 axis
 symspgr : the symmetry operation no.  73 is a pure translation
 symaxes : the symmetry operation no.  74 is a 2_1-axis
 symaxes : the symmetry operation no.  75 is a 2-axis
 symaxes : the symmetry operation no.  76 is a 2_1-axis
 symplanes : the symmetry operation no.  77 is a tertiary m plane
 symspgr : the symmetry operation no.  78 is a -4 axis
 symplanes : the symmetry operation no.  79 is a mirror plane
 symspgr : the symmetry operation no.  80 is a -4 axis
 symaxes : the symmetry operation no.  81 is a 3, 3_1 or 3_2 axis
 symaxes : the symmetry operation no.  82 is a 3, 3_1 or 3_2 axis
 symaxes : the symmetry operation no.  83 is a 3-axis
 symaxes : the symmetry operation no.  84 is a 3-axis
 symplanes : the symmetry operation no.  85 is a tertiary m plane
 symspgr : the symmetry operation no.  86 is a -4 axis
 symspgr : the symmetry operation no.  87 is a -4 axis
 symplanes : the symmetry operation no.  88 is a tertiary m plane
 symaxes : the symmetry operation no.  89 is a 3, 3_1 or 3_2 axis
 symaxes : the symmetry operation no.  90 is a 3-axis
 symaxes : the symmetry operation no.  91 is a 3-axis
 symaxes : the symmetry operation no.  92 is a 3, 3_1 or 3_2 axis
 symplanes : the symmetry operation no.  93 is a tertiary m plane
 symplanes : the symmetry operation no.  94 is a tertiary m plane
 symspgr : the symmetry operation no.  95 is a -4 axis
 symspgr : the symmetry operation no.  96 is a -4 axis
 symspgr : spgroup= 216  F-4 3 m   (=Td^2)
 getkgrid : length of smallest supercell vector (bohr)=    8.556720E+01
       Simple Lattice Grid
 symkpt : found identity, with number  1

 invars1m : enter jdtset=     2
 invars1 : treat image number     1

 symlatt : the Bravais lattice is cF (face-centered cubic)
  xred   is defined in input file
 ingeo : takes atomic coordinates from input array xred

 symlatt : the Bravais lattice is cF (face-centered cubic)

 symlatt : the Bravais lattice is cF (face-centered cubic)
 symspgr : the symmetry operation no.   1 is the identity
 symaxes : the symmetry operation no.   2 is a 2-axis
 symaxes : the symmetry operation no.   3 is a 2-axis
 symaxes : the symmetry operation no.   4 is a 2-axis
 symplanes : the symmetry operation no.   5 is a mirror plane
 symspgr : the symmetry operation no.   6 is a -4 axis
 symplanes : the symmetry operation no.   7 is a mirror plane
 symspgr : the symmetry operation no.   8 is a -4 axis
 symaxes : the symmetry operation no.   9 is a 3-axis
 symaxes : the symmetry operation no.  10 is a 3-axis
 symaxes : the symmetry operation no.  11 is a 3-axis
 symaxes : the symmetry operation no.  12 is a 3-axis
 symplanes : the symmetry operation no.  13 is a mirror plane
 symspgr : the symmetry operation no.  14 is a -4 axis
 symspgr : the symmetry operation no.  15 is a -4 axis
 symplanes : the symmetry operation no.  16 is a mirror plane
 symaxes : the symmetry operation no.  17 is a 3-axis
 symaxes : the symmetry operation no.  18 is a 3-axis
 symaxes : the symmetry operation no.  19 is a 3-axis
 symaxes : the symmetry operation no.  20 is a 3-axis
 symplanes : the symmetry operation no.  21 is a mirror plane
 symplanes : the symmetry operation no.  22 is a mirror plane
 symspgr : the symmetry operation no.  23 is a -4 axis
 symspgr : the symmetry operation no.  24 is a -4 axis
 symspgr : the symmetry operation no.  25 is a pure translation
 symaxes : the symmetry operation no.  26 is a 2_1-axis
 symaxes : the symmetry operation no.  27 is a 2_1-axis
 symaxes : the symmetry operation no.  28 is a 2-axis
 symplanes : the symmetry operation no.  29 is a tertiary m plane
 symspgr : the symmetry operation no.  30 is a -4 axis
 symplanes : the symmetry operation no.  31 is a tertiary m plane
 symspgr : the symmetry operation no.  32 is a -4 axis
 symaxes : the symmetry operation no.  33 is a 3, 3_1 or 3_2 axis
 symaxes : the symmetry operation no.  34 is a 3-axis
 symaxes : the symmetry operation no.  35 is a 3, 3_1 or 3_2 axis
 symaxes : the symmetry operation no.  36 is a 3-axis
 symplanes : the symmetry operation no.  37 is a tertiary m plane
 symspgr : the symmetry operation no.  38 is a -4 axis
 symspgr : the symmetry operation no.  39 is a -4 axis
 symplanes : the symmetry operation no.  40 is a mirror plane
 symaxes : the symmetry operation no.  41 is a 3, 3_1 or 3_2 axis
 symaxes : the symmetry operation no.  42 is a 3, 3_1 or 3_2 axis
 symaxes : the symmetry operation no.  43 is a 3-axis
 symaxes : the symmetry operation no.  44 is a 3-axis
 symplanes : the symmetry operation no.  45 is a tertiary m plane
 symplanes : the symmetry operation no.  46 is a tertiary m plane
 symspgr : the symmetry operation no.  47 is a -4 axis
 symspgr : the symmetry operation no.  48 is a -4 axis
 symspgr : the symmetry operation no.  49 is a pure translation
 symaxes : the symmetry operation no.  50 is a 2-axis
 symaxes : the symmetry operation no.  51 is a 2_1-axis
 symaxes : the symmetry operation no.  52 is a 2_1-axis
 symplanes : the symmetry operation no.  53 is a tertiary m plane
 symspgr : the symmetry operation no.  54 is a -4 axis
 symplanes : the symmetry operation no.  55 is a tertiary m plane
 symspgr : the symmetry operation no.  56 is a -4 axis
 symaxes : the symmetry operation no.  57 is a 3, 3_1 or 3_2 axis
 symaxes : the symmetry operation no.  58 is a 3-axis
 symaxes : the symmetry operation no.  59 is a 3-axis
 symaxes : the symmetry operation no.  60 is a 3, 3_1 or 3_2 axis
 symplanes : the symmetry operation no.  61 is a tertiary m plane
 symspgr : the symmetry operation no.  62 is a -4 axis
 symspgr : the symmetry operation no.  63 is a -4 axis
 symplanes : the symmetry operation no.  64 is a tertiary m plane
 symaxes : the symmetry operation no.  65 is a 3, 3_1 or 3_2 axis
 symaxes : the symmetry operation no.  66 is a 3-axis
 symaxes : the symmetry operation no.  67 is a 3, 3_1 or 3_2 axis
 symaxes : the symmetry operation no.  68 is a 3-axis
 symplanes : the symmetry operation no.  69 is a tertiary m plane
 symplanes : the symmetry operation no.  70 is a mirror plane
 symspgr : the symmetry operation no.  71 is a -4 axis
 symspgr : the symmetry operation no.  72 is a -4 axis
 symspgr : the symmetry operation no.  73 is a pure translation
 symaxes : the symmetry operation no.  74 is a 2_1-axis
 symaxes : the symmetry operation no.  75 is a 2-axis
 symaxes : the symmetry operation no.  76 is a 2_1-axis
 symplanes : the symmetry operation no.  77 is a tertiary m plane
 symspgr : the symmetry operation no.  78 is a -4 axis
 symplanes : the symmetry operation no.  79 is a mirror plane
 symspgr : the symmetry operation no.  80 is a -4 axis
 symaxes : the symmetry operation no.  81 is a 3, 3_1 or 3_2 axis
 symaxes : the symmetry operation no.  82 is a 3, 3_1 or 3_2 axis
 symaxes : the symmetry operation no.  83 is a 3-axis
 symaxes : the symmetry operation no.  84 is a 3-axis
 symplanes : the symmetry operation no.  85 is a tertiary m plane
 symspgr : the symmetry operation no.  86 is a -4 axis
 symspgr : the symmetry operation no.  87 is a -4 axis
 symplanes : the symmetry operation no.  88 is a tertiary m plane
 symaxes : the symmetry operation no.  89 is a 3, 3_1 or 3_2 axis
 symaxes : the symmetry operation no.  90 is a 3-axis
 symaxes : the symmetry operation no.  91 is a 3-axis
 symaxes : the symmetry operation no.  92 is a 3, 3_1 or 3_2 axis
 symplanes : the symmetry operation no.  93 is a tertiary m plane
 symplanes : the symmetry operation no.  94 is a tertiary m plane
 symspgr : the symmetry operation no.  95 is a -4 axis
 symspgr : the symmetry operation no.  96 is a -4 axis
 symspgr : spgroup= 216  F-4 3 m   (=Td^2)
 getkgrid : length of smallest supercell vector (bohr)=    6.050515E+01
       Simple Lattice Grid
 symkpt : found identity, with number  1
 invars2: take the default value of fband=  1.25000000E-01
 getkgrid : length of smallest supercell vector (bohr)=    8.556720E+01
       Simple Lattice Grid
 symkpt : found identity, with number  1
  dtset%nelect=   8.0000000000000000     
 chkneu : initialized the occupation numbers for occopt=    1
    spin-unpolarized case :
  2.00  2.00  2.00  2.00  0.00
 getkgrid : length of smallest supercell vector (bohr)=    6.050515E+01
       Simple Lattice Grid
 symkpt : found identity, with number  1
  dtset%nelect=   8.0000000000000000     
 chkneu : initialized the occupation numbers for occopt=    1
    spin-unpolarized case :
  2.00  2.00  2.00  2.00  0.00  0.00  0.00  0.00  0.00  0.00  0.00  0.00
  0.00  0.00  0.00
  mpi_setup : enter 
 mpi_setup1: mkmem  undefined in the input file. Use default mkmem  = nkpt
 mpi_setup1: With nkpt_me=   60 and mkmem  =    60, ground state wf handled in core.
 mpi_setup1: mkqmem undefined in the input file. Use default mkqmem = nkpt
 mpi_setup1: With nkpt_me=   60 and mkqmem =    60, ground state wf handled in core.
 mpi_setup1: mk1mem undefined in the input file. Use default mk1mem = nkpt
 mpi_setup1: With nkpt_me=   60 and mk1mem =    60, ground state wf handled in core.

 getng.F90:200:WARNING
   The second and third dimension of the FFT grid,    0    0  were imposed to be multiple of the number of processors for the FFT,    1
 For input ecut=  2.000000E+01 best grid ngfft=      32      32      32
       max ecut=  2.208539E+01

 ==== FFT mesh ====
  FFT mesh divisions ........................    32   32   32
  Augmented FFT divisions ...................    33   33   32
  FFT algorithm .............................   112
  FFT cache size ............................    16
 getmpw: optimal value of mpw=    1321

 mpi_setup : WARNING -
 For non ground state calculation, set bandpp, npfft, npband, npspinor and npkpt to 1
 mpi_setup1: mkmem  undefined in the input file. Use default mkmem  = nkpt
 mpi_setup1: With nkpt_me=   29 and mkmem  =    29, ground state wf handled in core.
 mpi_setup1: mkqmem undefined in the input file. Use default mkqmem = nkpt
 mpi_setup1: With nkpt_me=   29 and mkqmem =    29, ground state wf handled in core.
 mpi_setup1: mk1mem undefined in the input file. Use default mk1mem = nkpt
 mpi_setup1: With nkpt_me=   29 and mk1mem =    29, ground state wf handled in core.
 For input ecut=  2.000000E+01 best grid ngfft=      32      32      32
       max ecut=  2.208539E+01

 ==== FFT mesh ====
  FFT mesh divisions ........................    32   32   32
  Augmented FFT divisions ...................    33   33   32
  FFT algorithm .............................   112
  FFT cache size ............................    16
 getmpw: optimal value of mpw=    1323

 DATASET    1 : space group F-4 3 m (#216); Bravais cF (face-center cubic)

 getdim_nloc : deduce lmnmax  =  16, lnmax  =   4,
                      lmnmaxso=  16, lnmaxso=   4.
 setmqgrid : COMMENT -
  The number of points "mqgrid" in reciprocal space used for the
  description of the pseudopotentials has been set automatically
  by abinit to :     3001.
 memory : analysis of memory needs
================================================================================
 Values of the parameters that define the memory need for DATASET  1.
   intxc =         0  ionmov =         0    iscf =         7 xclevel =         1
  lmnmax =         4   lnmax =         4   mband =         5  mffmem =         1
P  mgfft =        32   mkmem =        60 mpssoang=         4     mpw =      1321
  mqgrid =      3001   natom =         2    nfft =     32768    nkpt =        60
  nloalg =         4  nspden =         1 nspinor =         1  nsppol =         1
    nsym =        24  n1xccc =         0  ntypat =         2  occopt =         1
================================================================================
P This job should need less than                      17.092 Mbytes of memory.
  Rough estimation (10% accuracy) of disk space for files :
_ WF disk file :      6.049 Mbytes ; DEN or POT disk file :      0.252 Mbytes.
================================================================================

 Biggest array : cg(disk), with      6.0491 MBytes.
 memana : allocated an array of      6.049 Mbytes, for testing purposes.
 memana : allocated      17.092 Mbytes, for testing purposes.
 The job will continue.

 DATASET    2 : space group F-4 3 m (#216); Bravais cF (face-center cubic)

 getdim_nloc : deduce lmnmax  =  16, lnmax  =   4,
                      lmnmaxso=  16, lnmaxso=   4.
 setmqgrid : COMMENT -
  The number of points "mqgrid" in reciprocal space used for the
  description of the pseudopotentials has been set automatically
  by abinit to :     3001.
 memory : analysis of memory needs
================================================================================
 Values of the parameters that define the memory need for DATASET  2.
   intxc =         0  ionmov =         0    iscf =        -2 xclevel =         1
  lmnmax =         4   lnmax =         4   mband =        15  mffmem =         1
P  mgfft =        32   mkmem =        29 mpssoang=         4     mpw =      1323
  mqgrid =      3001   natom =         2    nfft =     32768    nkpt =        29
  nloalg =         4  nspden =         1 nspinor =         1  nsppol =         1
    nsym =        24  n1xccc =         0  ntypat =         2  occopt =         1
================================================================================
P This job should need less than                      15.386 Mbytes of memory.
  Rough estimation (10% accuracy) of disk space for files :
_ WF disk file :      8.784 Mbytes ; DEN or POT disk file :      0.252 Mbytes.
================================================================================

 Biggest array : cg(disk), with      8.7835 MBytes.
 memana : allocated an array of      8.784 Mbytes, for testing purposes.
 memana : allocated      15.386 Mbytes, for testing purposes.
 The job will continue.
--------------------------------------------------------------------------------
------------- Echo of variables that govern the present computation ------------
--------------------------------------------------------------------------------
-
- outvars: echo of selected default values                                      
-   accesswff0 =  0 , fftalg0 =112 , wfoptalg0 =  0
-
- outvars: echo of global parameters not present in the input file              
-  max_nthreads =    0
-
 -outvars: echo values of preprocessed input variables --------
            acell      1.0695900000E+01  1.0695900000E+01  1.0695900000E+01 Bohr
              amu      2.69815390E+01  7.49215900E+01
           diemac      1.20000000E+01
             ecut      2.00000000E+01 Hartree
           getden1          0
           getden2         -1
             iscf1          7
             iscf2         -2
           istwfk2       1    0    0    0    1    0    0    0    0    0
                         0    0    0    0    0    0    0    0    0    0
                         1    0    0    0    0    0    0    0    0
                       outvar_i_n : Printing only first  50 k-points.
              ixc           7
           jdtset        1    2
              kpt1    -6.25000000E-02 -1.25000000E-01  0.00000000E+00
                      -6.25000000E-02 -2.50000000E-01  0.00000000E+00
                      -1.25000000E-01 -1.87500000E-01  0.00000000E+00
                      -6.25000000E-02 -1.87500000E-01  6.25000000E-02
                      -6.25000000E-02 -3.75000000E-01  0.00000000E+00
                      -1.25000000E-01 -3.12500000E-01  0.00000000E+00
                      -6.25000000E-02 -3.12500000E-01  6.25000000E-02
                      -1.87500000E-01 -2.50000000E-01  0.00000000E+00
                      -1.25000000E-01 -2.50000000E-01  6.25000000E-02
                      -6.25000000E-02 -2.50000000E-01  1.25000000E-01
                      -6.25000000E-02  5.00000000E-01  0.00000000E+00
                      -1.25000000E-01 -4.37500000E-01  0.00000000E+00
                      -6.25000000E-02 -4.37500000E-01  6.25000000E-02
                      -1.87500000E-01 -3.75000000E-01  0.00000000E+00
                      -1.25000000E-01 -3.75000000E-01  6.25000000E-02
                      -6.25000000E-02 -3.75000000E-01  1.25000000E-01
                      -2.50000000E-01 -3.12500000E-01  0.00000000E+00
                      -1.87500000E-01 -3.12500000E-01  6.25000000E-02
                      -1.25000000E-01 -3.12500000E-01  1.25000000E-01
                      -6.25000000E-02 -3.12500000E-01  1.87500000E-01
                      -6.25000000E-02  3.75000000E-01  0.00000000E+00
                      -1.25000000E-01  4.37500000E-01  0.00000000E+00
                      -1.87500000E-01  5.00000000E-01  0.00000000E+00
                      -1.25000000E-01  5.00000000E-01  6.25000000E-02
                      -2.50000000E-01 -4.37500000E-01  0.00000000E+00
                      -1.87500000E-01 -4.37500000E-01  6.25000000E-02
                      -1.25000000E-01 -4.37500000E-01  1.25000000E-01
                      -6.25000000E-02 -4.37500000E-01  1.87500000E-01
                      -3.12500000E-01 -3.75000000E-01  0.00000000E+00
                      -2.50000000E-01 -3.75000000E-01  6.25000000E-02
                      -1.87500000E-01 -3.75000000E-01  1.25000000E-01
                      -1.25000000E-01 -3.75000000E-01  1.87500000E-01
                      -6.25000000E-02 -3.75000000E-01  2.50000000E-01
                      -6.25000000E-02  2.50000000E-01  0.00000000E+00
                      -1.25000000E-01  3.12500000E-01  0.00000000E+00
                      -1.87500000E-01  3.75000000E-01  0.00000000E+00
                      -2.50000000E-01  4.37500000E-01  0.00000000E+00
                      -3.12500000E-01  5.00000000E-01  0.00000000E+00
                      -2.50000000E-01  5.00000000E-01  6.25000000E-02
                      -1.87500000E-01  5.00000000E-01  1.25000000E-01
                      -3.75000000E-01 -4.37500000E-01  0.00000000E+00
                      -3.12500000E-01 -4.37500000E-01  6.25000000E-02
                      -2.50000000E-01 -4.37500000E-01  1.25000000E-01
                      -1.87500000E-01 -4.37500000E-01  1.87500000E-01
                      -1.25000000E-01 -4.37500000E-01  2.50000000E-01
                      -6.25000000E-02 -4.37500000E-01  3.12500000E-01
                      -6.25000000E-02  1.25000000E-01  0.00000000E+00
                      -1.25000000E-01  1.87500000E-01  0.00000000E+00
                      -1.87500000E-01  2.50000000E-01  0.00000000E+00
                      -2.50000000E-01  3.12500000E-01  0.00000000E+00
              kpt2     0.00000000E+00  0.00000000E+00  0.00000000E+00
                       1.25000000E-01  0.00000000E+00  0.00000000E+00
                       2.50000000E-01  0.00000000E+00  0.00000000E+00
                       3.75000000E-01  0.00000000E+00  0.00000000E+00
                       5.00000000E-01  0.00000000E+00  0.00000000E+00
                       1.25000000E-01  1.25000000E-01  0.00000000E+00
                       2.50000000E-01  1.25000000E-01  0.00000000E+00
                       3.75000000E-01  1.25000000E-01  0.00000000E+00
                       5.00000000E-01  1.25000000E-01  0.00000000E+00
                      -3.75000000E-01  1.25000000E-01  0.00000000E+00
                      -2.50000000E-01  1.25000000E-01  0.00000000E+00
                      -1.25000000E-01  1.25000000E-01  0.00000000E+00
                       2.50000000E-01  2.50000000E-01  0.00000000E+00
                       3.75000000E-01  2.50000000E-01  0.00000000E+00
                       5.00000000E-01  2.50000000E-01  0.00000000E+00
                      -3.75000000E-01  2.50000000E-01  0.00000000E+00
                      -2.50000000E-01  2.50000000E-01  0.00000000E+00
                       3.75000000E-01  3.75000000E-01  0.00000000E+00
                       5.00000000E-01  3.75000000E-01  0.00000000E+00
                      -3.75000000E-01  3.75000000E-01  0.00000000E+00
                       5.00000000E-01  5.00000000E-01  0.00000000E+00
                       3.75000000E-01  2.50000000E-01  1.25000000E-01
                       5.00000000E-01  2.50000000E-01  1.25000000E-01
                      -3.75000000E-01  2.50000000E-01  1.25000000E-01
                       5.00000000E-01  3.75000000E-01  1.25000000E-01
                      -3.75000000E-01  3.75000000E-01  1.25000000E-01
                      -2.50000000E-01  3.75000000E-01  1.25000000E-01
                      -3.75000000E-01  5.00000000E-01  1.25000000E-01
                      -2.50000000E-01  5.00000000E-01  2.50000000E-01
                       outvar_i_n : Printing only first  50 k-points.
         kptrlatt1       8   -8    8     -8    8    8     -8   -8    8
         kptrlatt2       8    0    0      0    8    0      0    0    8
          kptrlen1     8.55672000E+01
          kptrlen2     6.05051474E+01
          kssform1          1
          kssform2          3
P           mkmem1         60
P           mkmem2         29
            natom           2
            nband1          5
            nband2         15
         nbandkss1          0
         nbandkss2         13
           nbdbuf1          0
           nbdbuf2          2
           ndtset           2
            ngfft          32      32      32
             nkpt1         60
             nkpt2         29
            nstep         100
             nsym          24
           ntypat           2
              occ      2.000000  2.000000  2.000000  2.000000  0.000000
            rprim     -5.0000000000E-01  0.0000000000E+00  5.0000000000E-01
                       0.0000000000E+00  5.0000000000E-01  5.0000000000E-01
                      -5.0000000000E-01  5.0000000000E-01  0.0000000000E+00
           shiftk1     5.00000000E-01  5.00000000E-01  5.00000000E-01
           shiftk2     0.00000000E+00  0.00000000E+00  0.00000000E+00
          spgroup         216
        symmorphi           0
           symrel      1  0  0   0  1  0   0  0  1       0 -1  1   0 -1  0   1 -1  0
                      -1  0  0  -1  0  1  -1  1  0       0  1 -1   1  0 -1   0  0 -1
                      -1  0  0  -1  1  0  -1  0  1       0 -1  1   1 -1  0   0 -1  0
                       1  0  0   0  0  1   0  1  0       0  1 -1   0  0 -1   1  0 -1
                      -1  0  1  -1  1  0  -1  0  0       0 -1  0   1 -1  0   0 -1  1
                       1  0 -1   0  0 -1   0  1 -1       0  1  0   0  0  1   1  0  0
                       1  0 -1   0  1 -1   0  0 -1       0 -1  0   0 -1  1   1 -1  0
                      -1  0  1  -1  0  0  -1  1  0       0  1  0   1  0  0   0  0  1
                       0  0 -1   0  1 -1   1  0 -1       1 -1  0   0 -1  1   0 -1  0
                       0  0  1   1  0  0   0  1  0      -1  1  0  -1  0  0  -1  0  1
                       0  0  1   0  1  0   1  0  0       1 -1  0   0 -1  0   0 -1  1
                       0  0 -1   1  0 -1   0  1 -1      -1  1  0  -1  0  1  -1  0  0
           toldfe1     1.00000000E-06 Hartree
           toldfe2     0.00000000E+00 Hartree
           tolwfr1     0.00000000E+00
           tolwfr2     1.00000000E-10
            typat      1  2
              wtk1       0.01172    0.01172    0.01172    0.02344    0.01172    0.01172
                         0.02344    0.01172    0.02344    0.02344    0.01172    0.01172
                         0.02344    0.01172    0.02344    0.02344    0.01172    0.02344
                         0.02344    0.02344    0.01172    0.01172    0.01172    0.02344
                         0.01172    0.02344    0.02344    0.02344    0.01172    0.02344
                         0.02344    0.02344    0.02344    0.01172    0.01172    0.01172
                         0.01172    0.01172    0.02344    0.02344    0.01172    0.02344
                         0.02344    0.02344    0.02344    0.02344    0.01172    0.01172
                         0.01172    0.01172
              wtk2       0.00195    0.01563    0.01563    0.01563    0.00781    0.01172
                         0.04688    0.04688    0.04688    0.04688    0.04688    0.02344
                         0.01172    0.04688    0.04688    0.04688    0.02344    0.01172
                         0.04688    0.02344    0.00586    0.04688    0.09375    0.04688
                         0.04688    0.09375    0.04688    0.02344    0.01172
                       outvars : Printing only first  50 k-points.
           xangst      0.0000000000E+00  0.0000000000E+00  0.0000000000E+00
                      -1.4150066263E+00  1.4150066263E+00  1.4150066263E+00
            xcart      0.0000000000E+00  0.0000000000E+00  0.0000000000E+00
                      -2.6739750000E+00  2.6739750000E+00  2.6739750000E+00
             xred      0.0000000000E+00  0.0000000000E+00  0.0000000000E+00
                       2.5000000000E-01  2.5000000000E-01  2.5000000000E-01
            znucl       13.00000   33.00000

================================================================================

 chkinp: machine precision is   2.2204460492503131E-16

 chkinp: Checking input parameters for consistency, jdtset=   1.

 chkinp: Checking input parameters for consistency, jdtset=   2.
 Checking if input is consistent with KSS generation
 DATA TYPE INFORMATION: 
 REAL:      Data type name: REAL(DP) 
            Kind value:      8
            Precision:      15
            Smallest nonnegligible quantity relative to 1:  0.22204460E-15
            Smallest positive number:                       0.22250739-307
            Largest representable number:                   0.17976931+309
 INTEGER:   Data type name: INTEGER(default) 
            Kind value: 4
            Bit size:   32
            Largest representable number: 2147483647
 LOGICAL:   Data type name: LOGICAL 
            Kind value: 4
 CHARACTER: Data type name: CHARACTER             Kind value: 1
 ==== OpenMP parallelism is OFF ====
 
  ==== Using MPI-2 specifications ==== 
  MPI-IO support is ON
  xmpi_tag_ub ................   2147483647
  xmpi_bsize_ch ..............            1
  xmpi_bsize_int .............            4
  xmpi_bsize_sp ..............            4
  xmpi_bsize_dp ..............            8
  xmpi_bsize_spc .............            8
  xmpi_bsize_dpc .............           16
  xmpio_bsize_frm ............            4
  xmpi_address_kind ..........            8
  xmpi_offset_kind ...........            8
  MPI_WTICK ..................    9.9999999999999995E-007

================================================================================
== DATASET  1 ==================================================================
-   nproc =    1

 setmqgrid : COMMENT -
  The number of points "mqgrid" in reciprocal space used for the
  description of the pseudopotentials has been set automatically
  by abinit to :     3001.

 getdim_nloc : deduce lmnmax  =  16, lnmax  =   4,
                      lmnmaxso=  16, lnmaxso=   4.
 Exchange-correlation functional for the present dataset will be:
  LDA: Perdew-Wang 92 LSD fit to Ceperley-Alder data - ixc=7
 Citation for XC functional:
  J.P.Perdew and Y.Wang, PRB 45, 13244 (1992)

 Unit cell volume ucvol=  3.0590883E+02 bohr^3
 Angles (23,13,12)=  6.00000000E+01  6.00000000E+01  6.00000000E+01 degrees

 getcut: wavevector=  0.0000  0.0000  0.0000  ngfft=  32  32  32
         ecut(hartree)=     20.000   => boxcut(ratio)=   2.10168
- pspini: atom type   1  psp file is ./13-Al.LDA.fhi
- pspatm: opening atomic psp file    ./13-Al.LDA.fhi
- aluminium, fhi98PP : Trouiller-Martins-type, LDA Ceperley/Alder Perdew/Wang (1992), l= 2 local
- 13.00000   3.00000     21003                znucl, zion, pspdat
    6    7    3    2       493   0.00000      pspcod,pspxc,lmax,lloc,mmax,r2well
    0.00000000000000    0.00000000000000    0.00000000000000   rchrg,fchrg,qchrg
  1.024700          amesh (Hamman grid)
 pspatm: epsatm=   -3.73067947
         --- l  ekb(1:nproj) -->
             0    2.872053
             1    1.412891
             3   -1.138772
 pspatm: atomic psp has been read  and splines computed

- pspini: atom type   2  psp file is ./33-As.LDA.fhi
- pspatm: opening atomic psp file    ./33-As.LDA.fhi
- arsenic, fhi98PP : Trouiller-Martins-type, LDA Ceperley/Alder Perdew/Wang (1992), l= 2 local
- 33.00000   5.00000     11001                znucl, zion, pspdat
    6    7    3    2       531   0.00000      pspcod,pspxc,lmax,lloc,mmax,r2well
    0.00000000000000    0.00000000000000    0.00000000000000   rchrg,fchrg,qchrg
  1.024700          amesh (Hamman grid)
 pspatm: epsatm=   13.90965760
         --- l  ekb(1:nproj) -->
             0    9.939809
             1   20.273736
             3   -0.735582
 pspatm: atomic psp has been read  and splines computed

   8.14318250E+01                                ecore*ucvol(ha*bohr**3)
   1  1  1  1  1  1  1  1  1  1  1  1  1  1  1  1  1  1  1  1  1  1  1  1
   2  2  2  2  2  2  2  2  2  2  2  2  2  2  2  2  2  2  2  2  2  2  2  2
 wfconv:     5 bands initialized randomly with npw=  1311, for ikpt=     1
 wfconv:     5 bands initialized randomly with npw=  1319, for ikpt=     2
 wfconv:     5 bands initialized randomly with npw=  1313, for ikpt=     3
 wfconv:     5 bands initialized randomly with npw=  1320, for ikpt=     4
 wfconv:     5 bands initialized randomly with npw=  1309, for ikpt=     5
 wfconv:     5 bands initialized randomly with npw=  1314, for ikpt=     6
 wfconv:     5 bands initialized randomly with npw=  1313, for ikpt=     7
 wfconv:     5 bands initialized randomly with npw=  1317, for ikpt=     8
 wfconv:     5 bands initialized randomly with npw=  1315, for ikpt=     9
 wfconv:     5 bands initialized randomly with npw=  1314, for ikpt=    10
 wfconv:     5 bands initialized randomly with npw=  1311, for ikpt=    11
 wfconv:     5 bands initialized randomly with npw=  1305, for ikpt=    12
 wfconv:     5 bands initialized randomly with npw=  1308, for ikpt=    13
 wfconv:     5 bands initialized randomly with npw=  1304, for ikpt=    14
 wfconv:     5 bands initialized randomly with npw=  1304, for ikpt=    15
 wfconv:     5 bands initialized randomly with npw=  1306, for ikpt=    16
 wfconv:     5 bands initialized randomly with npw=  1310, for ikpt=    17
 wfconv:     5 bands initialized randomly with npw=  1309, for ikpt=    18
 wfconv:     5 bands initialized randomly with npw=  1303, for ikpt=    19
 wfconv:     5 bands initialized randomly with npw=  1308, for ikpt=    20
 wfconv:     5 bands initialized randomly with npw=  1301, for ikpt=    21
 wfconv:     5 bands initialized randomly with npw=  1303, for ikpt=    22
 wfconv:     5 bands initialized randomly with npw=  1302, for ikpt=    23
 wfconv:     5 bands initialized randomly with npw=  1302, for ikpt=    24
 wfconv:     5 bands initialized randomly with npw=  1302, for ikpt=    25
 wfconv:     5 bands initialized randomly with npw=  1304, for ikpt=    26
 wfconv:     5 bands initialized randomly with npw=  1303, for ikpt=    27
 wfconv:     5 bands initialized randomly with npw=  1300, for ikpt=    28
 wfconv:     5 bands initialized randomly with npw=  1301, for ikpt=    29
 wfconv:     5 bands initialized randomly with npw=  1306, for ikpt=    30
 wfconv:     5 bands initialized randomly with npw=  1304, for ikpt=    31
 wfconv:     5 bands initialized randomly with npw=  1308, for ikpt=    32
 wfconv:     5 bands initialized randomly with npw=  1305, for ikpt=    33
 wfconv:     5 bands initialized randomly with npw=  1312, for ikpt=    34
 wfconv:     5 bands initialized randomly with npw=  1306, for ikpt=    35
 wfconv:     5 bands initialized randomly with npw=  1301, for ikpt=    36
 wfconv:     5 bands initialized randomly with npw=  1303, for ikpt=    37
 wfconv:     5 bands initialized randomly with npw=  1302, for ikpt=    38
 wfconv:     5 bands initialized randomly with npw=  1300, for ikpt=    39
 wfconv:     5 bands initialized randomly with npw=  1298, for ikpt=    40
 wfconv:     5 bands initialized randomly with npw=  1305, for ikpt=    41
 wfconv:     5 bands initialized randomly with npw=  1305, for ikpt=    42
 wfconv:     5 bands initialized randomly with npw=  1309, for ikpt=    43
 wfconv:     5 bands initialized randomly with npw=  1304, for ikpt=    44
 wfconv:     5 bands initialized randomly with npw=  1297, for ikpt=    45
 wfconv:     5 bands initialized randomly with npw=  1297, for ikpt=    46
 wfconv:     5 bands initialized randomly with npw=  1311, for ikpt=    47
 wfconv:     5 bands initialized randomly with npw=  1319, for ikpt=    48
 wfconv:     5 bands initialized randomly with npw=  1316, for ikpt=    49
 wfconv:     5 bands initialized randomly with npw=  1308, for ikpt=    50

_setup2: Arith. and geom. avg. npw (full set) are    1306.285    1306.273
 initro : for itypat=  1, take decay length=      1.2500,
 initro : indeed, coreel=     10.0000, nval=  3 and densty=  0.0000E+00.
 initro : for itypat=  2, take decay length=      1.0000,
 initro : indeed, coreel=     28.0000, nval=  5 and densty=  0.0000E+00.

================================================================================

 getcut: wavevector=  0.0000  0.0000  0.0000  ngfft=  32  32  32
         ecut(hartree)=     20.000   => boxcut(ratio)=   2.10168

 ewald : nr and ng are    3 and   11

 ITER STEP NUMBER     1
 vtorho : nnsclo_now=  2, note that nnsclo,dbl_nnsclo,istep=  0 0  1
 Total charge density [el/Bohr^3]
,     Maximum=    1.0733E-01  at reduced coord.    0.1563    0.1875    0.5000
,     Minimum=    2.1691E-03  at reduced coord.    0.7500    0.7500    0.7500
,  Integrated=    8.0000E+00
 ETOT  1  -8.5113981898797    -8.511E+00 1.209E-01 2.177E+01
 scprqt: <Vxc>= -3.1531337E-01 hartree

Simple mixing update:
  residual square of the potential :   8.5328789811866077

 ITER STEP NUMBER     2
 vtorho : nnsclo_now=  2, note that nnsclo,dbl_nnsclo,istep=  0 0  2
 Total charge density [el/Bohr^3]
,     Maximum=    1.0083E-01  at reduced coord.    0.1563    0.1875    0.5000
,     Minimum=    2.5859E-03  at reduced coord.    0.7500    0.7500    0.7500
,  Integrated=    8.0000E+00
 ETOT  2  -8.5226722310660    -1.127E-02 2.075E-02 8.282E-01
 scprqt: <Vxc>= -3.1823269E-01 hartree

 Pulay update with  1 previous iterations:
 mixing of old trial potential : alpha(m:m-4)=  0.943      0.566E-01

 ITER STEP NUMBER     3
 vtorho : nnsclo_now=  1, note that nnsclo,dbl_nnsclo,istep=  0 0  3
 Total charge density [el/Bohr^3]
,     Maximum=    1.0156E-01  at reduced coord.    0.1875    0.1875    0.4688
,     Minimum=    2.6103E-03  at reduced coord.    0.7500    0.7500    0.7500
,  Integrated=    8.0000E+00
 ETOT  3  -8.5228523263808    -1.801E-04 2.017E-03 6.065E-02
 scprqt: <Vxc>= -3.1809854E-01 hartree

 Pulay update with  2 previous iterations:
 mixing of old trial potential : alpha(m:m-4)=   1.13     -0.765E-01 -0.494E-01

 ITER STEP NUMBER     4
 vtorho : nnsclo_now=  1, note that nnsclo,dbl_nnsclo,istep=  0 0  4
 Total charge density [el/Bohr^3]
,     Maximum=    1.0139E-01  at reduced coord.    0.1875    0.1875    0.4688
,     Minimum=    2.6467E-03  at reduced coord.    0.7500    0.7500    0.7500
,  Integrated=    8.0000E+00
 ETOT  4  -8.5228615900913    -9.264E-06 1.034E-03 9.397E-04
 scprqt: <Vxc>= -3.1822069E-01 hartree

 Pulay update with  3 previous iterations:
 mixing of old trial potential : alpha(m:m-4)=   1.28     -0.297      0.516E-02  0.103E-01

 ITER STEP NUMBER     5
 vtorho : nnsclo_now=  1, note that nnsclo,dbl_nnsclo,istep=  0 0  5
 Total charge density [el/Bohr^3]
,     Maximum=    1.0139E-01  at reduced coord.    0.1875    0.1875    0.4688
,     Minimum=    2.6528E-03  at reduced coord.    0.7500    0.7500    0.7500
,  Integrated=    8.0000E+00
 ETOT  5  -8.5228616891097    -9.902E-08 6.626E-04 4.680E-06
 scprqt: <Vxc>= -3.1823146E-01 hartree

 Pulay update with  4 previous iterations:
 mixing of old trial potential : alpha(m:m-4)=   1.07     -0.891E-01  0.146E-01  0.839E-03 -0.515E-03

 ITER STEP NUMBER     6
 vtorho : nnsclo_now=  1, note that nnsclo,dbl_nnsclo,istep=  0 0  6
 Total charge density [el/Bohr^3]
,     Maximum=    1.0138E-01  at reduced coord.    0.1875    0.1875    0.4688
,     Minimum=    2.6532E-03  at reduced coord.    0.7500    0.7500    0.7500
,  Integrated=    8.0000E+00
 ETOT  6  -8.5228616896544    -5.447E-10 2.652E-04 3.156E-07
 scprqt: <Vxc>= -3.1823175E-01 hartree

 At SCF step    6, etot is converged : 
  for the second time, diff in etot=  5.447E-10 < toldfe=  1.000E-06
forstrnps: loop on k-points and spins done in parallel
  strhar : before mpi_comm, harstr=   5.6171155703467158E-003   5.6171155703467167E-003   5.6171155703466915E-003   3.1200737022086471E-020  -3.1200737022086471E-020  -8.0542968134148195E-018
  strhar : after mpi_comm, harstr=   5.6171155703467158E-003   5.6171155703467167E-003   5.6171155703466915E-003   3.1200737022086471E-020  -3.1200737022086471E-020  -8.0542968134148195E-018
  strhar : ehart,ucvol=  0.82043986812666791        305.90882813301977     

 Cartesian components of stress tensor (hartree/bohr^3)
  sigma(1 1)=  5.57745891E-05  sigma(3 2)=  0.00000000E+00
  sigma(2 2)=  5.57745891E-05  sigma(3 1)=  0.00000000E+00
  sigma(3 3)=  5.57745891E-05  sigma(2 1)=  0.00000000E+00

   1  1  1  1  1  1  1  1  1  1  1  1  1  1  1  1  1  1  1  1  1  1  1  1
   2  2  2  2  2  2  2  2  2  2  2  2  2  2  2  2  2  2  2  2  2  2  2  2
 ioarr: writing density data
ioarr: file name is alas-o_DS1_DEN
ioarr: data written to disk file alas-o_DS1_DEN
================================================================================

 ----iterations are completed or convergence reached----


 outwf: write wavefunction to file alas-o_DS1_WFK, with accesswff -1
 leave_test : synchronization done...
 outwf with iomode: -1, cpu:     0.02, wall:     0.02

 === Gap info ===
  >>>> For spin  1
   Minimum optical gap =   2.3755 [eV], located at k-point      :  -0.0625  0.0000  0.0000
   Fundamental gap     =   1.5558 [eV], Top of valence bands at :  -0.0625  0.0000  0.0000
                                        Bottom of conduction at :  -0.4375  0.5000  0.0000

 Cartesian components of stress tensor (hartree/bohr^3)
  sigma(1 1)=  5.57745891E-05  sigma(3 2)=  0.00000000E+00
  sigma(2 2)=  5.57745891E-05  sigma(3 1)=  0.00000000E+00
  sigma(3 3)=  5.57745891E-05  sigma(2 1)=  0.00000000E+00

-Cartesian components of stress tensor (GPa)         [Pressure= -1.6409E+00 GPa]
- sigma(1 1)=  1.64094479E+00  sigma(3 2)=  0.00000000E+00
- sigma(2 2)=  1.64094479E+00  sigma(3 1)=  0.00000000E+00
- sigma(3 3)=  1.64094479E+00  sigma(2 1)=  0.00000000E+00

================================================================================
== DATASET  2 ==================================================================
-   nproc =    1

 mkfilename : getden/=0, take file _DEN from output of DATASET   1.

 setmqgrid : COMMENT -
  The number of points "mqgrid" in reciprocal space used for the
  description of the pseudopotentials has been set automatically
  by abinit to :     3001.

 getdim_nloc : deduce lmnmax  =  16, lnmax  =   4,
                      lmnmaxso=  16, lnmaxso=   4.
 Exchange-correlation functional for the present dataset will be:
  LDA: Perdew-Wang 92 LSD fit to Ceperley-Alder data - ixc=7
 Citation for XC functional:
  J.P.Perdew and Y.Wang, PRB 45, 13244 (1992)

 Unit cell volume ucvol=  3.0590883E+02 bohr^3
 Angles (23,13,12)=  6.00000000E+01  6.00000000E+01  6.00000000E+01 degrees

 getcut: wavevector=  0.0000  0.0000  0.0000  ngfft=  32  32  32
         ecut(hartree)=     20.000   => boxcut(ratio)=   2.10168
   1  1  1  1  1  1  1  1  1  1  1  1  1  1  1  1  1  1  1  1  1  1  1  1
   2  2  2  2  2  2  2  2  2  2  2  2  2  2  2  2  2  2  2  2  2  2  2  2
 wfconv:    15 bands initialized randomly with npw=  1291, for ikpt=     1
 wfconv:    15 bands initialized randomly with npw=  1309, for ikpt=     2
 wfconv:    15 bands initialized randomly with npw=  1323, for ikpt=     3
 wfconv:    15 bands initialized randomly with npw=  1302, for ikpt=     4
 wfconv:    15 bands initialized randomly with npw=  1308, for ikpt=     5
 wfconv:    15 bands initialized randomly with npw=  1307, for ikpt=     6
 wfconv:    15 bands initialized randomly with npw=  1322, for ikpt=     7
 wfconv:    15 bands initialized randomly with npw=  1306, for ikpt=     8
 wfconv:    15 bands initialized randomly with npw=  1305, for ikpt=     9
 wfconv:    15 bands initialized randomly with npw=  1306, for ikpt=    10
 wfconv:    15 bands initialized randomly with npw=  1314, for ikpt=    11
 wfconv:    15 bands initialized randomly with npw=  1311, for ikpt=    12
 wfconv:    15 bands initialized randomly with npw=  1299, for ikpt=    13
 wfconv:    15 bands initialized randomly with npw=  1303, for ikpt=    14
 wfconv:    15 bands initialized randomly with npw=  1301, for ikpt=    15
 wfconv:    15 bands initialized randomly with npw=  1303, for ikpt=    16
 wfconv:    15 bands initialized randomly with npw=  1312, for ikpt=    17
 wfconv:    15 bands initialized randomly with npw=  1299, for ikpt=    18
 wfconv:    15 bands initialized randomly with npw=  1305, for ikpt=    19
 wfconv:    15 bands initialized randomly with npw=  1296, for ikpt=    20
 wfconv:    15 bands initialized randomly with npw=  1298, for ikpt=    21
 wfconv:    15 bands initialized randomly with npw=  1315, for ikpt=    22
 wfconv:    15 bands initialized randomly with npw=  1305, for ikpt=    23
 wfconv:    15 bands initialized randomly with npw=  1316, for ikpt=    24
 wfconv:    15 bands initialized randomly with npw=  1314, for ikpt=    25
 wfconv:    15 bands initialized randomly with npw=  1298, for ikpt=    26
 wfconv:    15 bands initialized randomly with npw=  1306, for ikpt=    27
 wfconv:    15 bands initialized randomly with npw=  1298, for ikpt=    28
 wfconv:    15 bands initialized randomly with npw=  1316, for ikpt=    29

 ioarr: reading density data
ioarr: file name is alas-o_DS1_DEN

================================================================================

          - hdr_check: checking restart file header for consistency -


        current calculation                         restart file
        -------------------                         ------------

  calculation expects a density         |  input file contains a density
. ABINIT  code version 7.4.1            |  ABINIT  code version 7.4.1
. date 20171116 bantot  435 natom    2  |  date 20171116 bantot  300 natom    2
  nkpt  29 nsym 24 ngfft  32,  32,  32  |  nkpt  60 nsym 24 ngfft  32,  32,  32
  ntypat  2 ecut_eff  20.0000000        |  ntypat  2 ecut_eff  20.0000000
  usepaw  0                             |  usepaw  0
  usewvl  0                             |  usewvl  0
  rprimd:                               |  rprimd:
    -5.3479500   0.0000000   5.3479500  |    -5.3479500   0.0000000   5.3479500
     0.0000000   5.3479500   5.3479500  |     0.0000000   5.3479500   5.3479500
    -5.3479500   5.3479500   0.0000000  |    -5.3479500   5.3479500   0.0000000
  symafm:                               |  symafm:
    1  1  1  1  1  1  1  1  1  1  1  1  |    1  1  1  1  1  1  1  1  1  1  1  1
    1  1  1  1  1  1  1  1  1  1  1  1  |    1  1  1  1  1  1  1  1  1  1  1  1
  symrel:                               |  symrel:
    1  0  0  0  1  0  0  0  1           |    1  0  0  0  1  0  0  0  1
    0 -1  1  0 -1  0  1 -1  0           |    0 -1  1  0 -1  0  1 -1  0
   -1  0  0 -1  0  1 -1  1  0           |   -1  0  0 -1  0  1 -1  1  0
    0  1 -1  1  0 -1  0  0 -1           |    0  1 -1  1  0 -1  0  0 -1
   -1  0  0 -1  1  0 -1  0  1           |   -1  0  0 -1  1  0 -1  0  1
    0 -1  1  1 -1  0  0 -1  0           |    0 -1  1  1 -1  0  0 -1  0
    1  0  0  0  0  1  0  1  0           |    1  0  0  0  0  1  0  1  0
    0  1 -1  0  0 -1  1  0 -1           |    0  1 -1  0  0 -1  1  0 -1
   -1  0  1 -1  1  0 -1  0  0           |   -1  0  1 -1  1  0 -1  0  0
    0 -1  0  1 -1  0  0 -1  1           |    0 -1  0  1 -1  0  0 -1  1
    1  0 -1  0  0 -1  0  1 -1           |    1  0 -1  0  0 -1  0  1 -1
    0  1  0  0  0  1  1  0  0           |    0  1  0  0  0  1  1  0  0
    1  0 -1  0  1 -1  0  0 -1           |    1  0 -1  0  1 -1  0  0 -1
    0 -1  0  0 -1  1  1 -1  0           |    0 -1  0  0 -1  1  1 -1  0
   -1  0  1 -1  0  0 -1  1  0           |   -1  0  1 -1  0  0 -1  1  0
    0  1  0  1  0  0  0  0  1           |    0  1  0  1  0  0  0  0  1
    0  0 -1  0  1 -1  1  0 -1           |    0  0 -1  0  1 -1  1  0 -1
    1 -1  0  0 -1  1  0 -1  0           |    1 -1  0  0 -1  1  0 -1  0
    0  0  1  1  0  0  0  1  0           |    0  0  1  1  0  0  0  1  0
   -1  1  0 -1  0  0 -1  0  1           |   -1  1  0 -1  0  0 -1  0  1
    0  0  1  0  1  0  1  0  0           |    0  0  1  0  1  0  1  0  0
    1 -1  0  0 -1  0  0 -1  1           |    1 -1  0  0 -1  0  0 -1  1
    0  0 -1  1  0 -1  0  1 -1           |    0  0 -1  1  0 -1  0  1 -1
   -1  1  0 -1  0  1 -1  0  0           |   -1  1  0 -1  0  1 -1  0  0
  typat:                                |  typat:
    1  2                                |    1  2
  so_psp  :                             |  so_psp  :
    1  1                                |    1  1
  tnons:                                |  tnons:
     0.0000000   0.0000000   0.0000000  |     0.0000000   0.0000000   0.0000000
     0.0000000   0.0000000   0.0000000  |     0.0000000   0.0000000   0.0000000
     0.0000000   0.0000000   0.0000000  |     0.0000000   0.0000000   0.0000000
     0.0000000   0.0000000   0.0000000  |     0.0000000   0.0000000   0.0000000
     0.0000000   0.0000000   0.0000000  |     0.0000000   0.0000000   0.0000000
     0.0000000   0.0000000   0.0000000  |     0.0000000   0.0000000   0.0000000
     0.0000000   0.0000000   0.0000000  |     0.0000000   0.0000000   0.0000000
     0.0000000   0.0000000   0.0000000  |     0.0000000   0.0000000   0.0000000
     0.0000000   0.0000000   0.0000000  |     0.0000000   0.0000000   0.0000000
     0.0000000   0.0000000   0.0000000  |     0.0000000   0.0000000   0.0000000
     0.0000000   0.0000000   0.0000000  |     0.0000000   0.0000000   0.0000000
     0.0000000   0.0000000   0.0000000  |     0.0000000   0.0000000   0.0000000
     0.0000000   0.0000000   0.0000000  |     0.0000000   0.0000000   0.0000000
     0.0000000   0.0000000   0.0000000  |     0.0000000   0.0000000   0.0000000
     0.0000000   0.0000000   0.0000000  |     0.0000000   0.0000000   0.0000000
     0.0000000   0.0000000   0.0000000  |     0.0000000   0.0000000   0.0000000
     0.0000000   0.0000000   0.0000000  |     0.0000000   0.0000000   0.0000000
     0.0000000   0.0000000   0.0000000  |     0.0000000   0.0000000   0.0000000
     0.0000000   0.0000000   0.0000000  |     0.0000000   0.0000000   0.0000000
     0.0000000   0.0000000   0.0000000  |     0.0000000   0.0000000   0.0000000
     0.0000000   0.0000000   0.0000000  |     0.0000000   0.0000000   0.0000000
     0.0000000   0.0000000   0.0000000  |     0.0000000   0.0000000   0.0000000
     0.0000000   0.0000000   0.0000000  |     0.0000000   0.0000000   0.0000000
     0.0000000   0.0000000   0.0000000  |     0.0000000   0.0000000   0.0000000
   znucl:                               |   znucl:
   13.00 33.00                          |   13.00 33.00
  pseudopotential atom type  1:         |  pseudopotential atom type  1:
  pspso   0 pspxc   7                   |  pspso   0 pspxc   7
  pspdat  21003 pspcod    6 zion   3.0  |  pspdat  21003 pspcod    6 zion   3.0
  pseudopotential atom type  2:         |  pseudopotential atom type  2:
  pspso   0 pspxc   7                   |  pspso   0 pspxc   7
  pspdat  11001 pspcod    6 zion   5.0  |  pspdat  11001 pspcod    6 zion   5.0
  xred:                                 |  xred:
     0.0000000   0.0000000   0.0000000  |     0.0000000   0.0000000   0.0000000
     0.2500000   0.2500000   0.2500000  |     0.2500000   0.2500000   0.2500000
 hdr_check:  Density/Potential file is OK for restart of calculation
================================================================================
ioarr: data read from disk file alas-o_DS1_DEN

================================================================================

 getcut: wavevector=  0.0000  0.0000  0.0000  ngfft=  32  32  32
         ecut(hartree)=     20.000   => boxcut(ratio)=   2.10168

 ewald : nr and ng are    3 and   11
 vtorho : nnsclo_now=100, note that nnsclo,dbl_nnsclo,istep=  0 0  1
   1  1  1  1  1  1  1  1  1  1  1  1  1  1  1  1  1  1  1  1  1  1  1  1
   2  2  2  2  2  2  2  2  2  2  2  2  2  2  2  2  2  2  2  2  2  2  2  2
 ioarr: writing density data
ioarr: file name is alas-o_DS2_DEN
ioarr: data written to disk file alas-o_DS2_DEN

======================================================================
 Calculating and writing out Kohn-Sham electronic Structure file
 Using conjugate gradient wavefunctions and energies (kssform=3)

 Sorting g-vecs for an output of states on an unique "big" PW basis.

 remove_inversion: WARNING - 
 Removing inversion related symmetrie from initial set
 The inversion was not found in the symmetries list.
 Program uses the original set of symmetries
 Since the number of g's to be written on file
 was 0 or too large, it has been set to the max. value.,
 computed from the union of the sets of G vectors for the different k-points.
 Number of g-vectors written on file is:  1807

 outkss.F90:549:COMMENT
  Number of bands calculated=   15, greater than nbandkss=   13
 will write nbandkss bands on the KSS file
 Number of bands written on file is:    13

 Total amount of disk space required by _KSS file =    16.82 Mb.
  Subdivided into : 
  Header             =     0.02 Mb.
  KB elements        =     6.40 Mb.
  Wavefunctions (PW) =    10.40 Mb.
  PAW projectors     =     0.00 Mb.


 Opening file for KS structure output: alas-o_DS2_KSS
 number of Gamma centered plane waves   1807
 number of Gamma centered shells    121
 number of bands     13
 maximum angular momentum components      4
 number of symmetry operations 24 (without inversion)

 k-point   1
 Eigenvalues in Hartree for ikpt=   1
   1     -0.3005  0.1368  0.1368  0.1368  0.2089  0.2929  0.2929  0.2929  0.4508
          0.4703  0.4703  0.5541  0.5541
 Writing out eigenvalues/vectors for ikpt=  1
 Occupation numbers for ikpt=  1
   1      2.0000  2.0000  2.0000  2.0000  0.0000  0.0000  0.0000  0.0000  0.0000
          0.0000  0.0000  0.0000  0.0000

 k-point   2
 Eigenvalues in Hartree for ikpt=   2
   2     -0.2949  0.0836  0.1309  0.1309  0.2370  0.3033  0.3033  0.3071  0.4468
          0.4468  0.4785  0.5328  0.6023
 Writing out eigenvalues/vectors for ikpt=  2
 Occupation numbers for ikpt=  2
   2      2.0000  2.0000  2.0000  2.0000  0.0000  0.0000  0.0000  0.0000  0.0000
          0.0000  0.0000  0.0000  0.0000

 k-point   3
 Eigenvalues in Hartree for ikpt=   3
   3     -0.2794  0.0116  0.1192  0.1192  0.2299  0.3160  0.3160  0.3711  0.4423
          0.4423  0.4755  0.5832  0.6890
 Writing out eigenvalues/vectors for ikpt=  3
 Occupation numbers for ikpt=  3
   3      2.0000  2.0000  2.0000  2.0000  0.0000  0.0000  0.0000  0.0000  0.0000
          0.0000  0.0000  0.0000  0.0000

 k-point   4
 Eigenvalues in Hartree for ikpt=   4
   4     -0.2594 -0.0452  0.1099  0.1099  0.2169  0.3120  0.3120  0.4162  0.4888
          0.4897  0.4897  0.6530  0.6705
 Writing out eigenvalues/vectors for ikpt=  4
 Occupation numbers for ikpt=  4
   4      2.0000  2.0000  2.0000  2.0000  0.0000  0.0000  0.0000  0.0000  0.0000
          0.0000  0.0000  0.0000  0.0000

 k-point   5
 Eigenvalues in Hartree for ikpt=   5
   5     -0.2488 -0.0685  0.1065  0.1065  0.2120  0.3077  0.3077  0.4167  0.5414
          0.5604  0.5604  0.5825  0.5825
 Writing out eigenvalues/vectors for ikpt=  5
 Occupation numbers for ikpt=  5
   5      2.0000  2.0000  2.0000  2.0000  0.0000  0.0000  0.0000  0.0000  0.0000
          0.0000  0.0000  0.0000  0.0000

 k-point   6
 Eigenvalues in Hartree for ikpt=   6
   6     -0.2931  0.0852  0.1185  0.1185  0.2619  0.2684  0.3227  0.3227  0.4076
          0.4804  0.4919  0.5720  0.5720
 Writing out eigenvalues/vectors for ikpt=  6
 Occupation numbers for ikpt=  6
   6      2.0000  2.0000  2.0000  2.0000  0.0000  0.0000  0.0000  0.0000  0.0000
          0.0000  0.0000  0.0000  0.0000

 k-point   7
 Eigenvalues in Hartree for ikpt=   7
   7     -0.2808  0.0301  0.1043  0.1055  0.2571  0.2870  0.3423  0.3452  0.4134
          0.4810  0.5217  0.5721  0.6297
 Writing out eigenvalues/vectors for ikpt=  7
 Occupation numbers for ikpt=  7
   7      2.0000  2.0000  2.0000  2.0000  0.0000  0.0000  0.0000  0.0000  0.0000
          0.0000  0.0000  0.0000  0.0000

 k-point   8
 Eigenvalues in Hartree for ikpt=   8
   8     -0.2618 -0.0275  0.0879  0.0962  0.2465  0.3023  0.3438  0.3629  0.4709
          0.5172  0.5173  0.6366  0.6588
 Writing out eigenvalues/vectors for ikpt=  8
 Occupation numbers for ikpt=  8
   8      2.0000  2.0000  2.0000  2.0000  0.0000  0.0000  0.0000  0.0000  0.0000
          0.0000  0.0000  0.0000  0.0000

 k-point   9
 Eigenvalues in Hartree for ikpt=   9
   9     -0.2466 -0.0617  0.0739  0.0966  0.2414  0.2992  0.3314  0.4215  0.4813
          0.5559  0.5596  0.5970  0.6078
 Writing out eigenvalues/vectors for ikpt=  9
 Occupation numbers for ikpt=  9
   9      2.0000  2.0000  2.0000  2.0000  0.0000  0.0000  0.0000  0.0000  0.0000
          0.0000  0.0000  0.0000  0.0000

 k-point  10
 Eigenvalues in Hartree for ikpt=  10
  10     -0.2503 -0.0540  0.0688  0.1052  0.2452  0.3044  0.3244  0.4260  0.4725
          0.4960  0.5556  0.6135  0.6810
 Writing out eigenvalues/vectors for ikpt= 10
 Occupation numbers for ikpt= 10
  10      2.0000  2.0000  2.0000  2.0000  0.0000  0.0000  0.0000  0.0000  0.0000
          0.0000  0.0000  0.0000  0.0000

 k-point  11
 Eigenvalues in Hartree for ikpt=  11
  11     -0.2686 -0.0098  0.0752  0.1188  0.2565  0.3150  0.3209  0.3713  0.4164
          0.4939  0.5364  0.6066  0.6741
 Writing out eigenvalues/vectors for ikpt= 11
 Occupation numbers for ikpt= 11
  11      2.0000  2.0000  2.0000  2.0000  0.0000  0.0000  0.0000  0.0000  0.0000
          0.0000  0.0000  0.0000  0.0000

 k-point  12
 Eigenvalues in Hartree for ikpt=  12
  12     -0.2860  0.0460  0.0978  0.1308  0.2613  0.2977  0.3075  0.3459  0.4120
          0.4568  0.5182  0.5584  0.5974
 Writing out eigenvalues/vectors for ikpt= 12
 Occupation numbers for ikpt= 12
  12      2.0000  2.0000  2.0000  2.0000  0.0000  0.0000  0.0000  0.0000  0.0000
          0.0000  0.0000  0.0000  0.0000

 k-point  13
 Eigenvalues in Hartree for ikpt=  13
  13     -0.2722  0.0178  0.0875  0.0875  0.2288  0.2729  0.3863  0.3863  0.4093
          0.5106  0.5760  0.6246  0.6246
 Writing out eigenvalues/vectors for ikpt= 13
 Occupation numbers for ikpt= 13
  13      2.0000  2.0000  2.0000  2.0000  0.0000  0.0000  0.0000  0.0000  0.0000
          0.0000  0.0000  0.0000  0.0000

 k-point  14
 Eigenvalues in Hartree for ikpt=  14
  14     -0.2561 -0.0195  0.0645  0.0775  0.2265  0.2724  0.3793  0.4029  0.4894
          0.5433  0.5875  0.6448  0.6551
 Writing out eigenvalues/vectors for ikpt= 14
 Occupation numbers for ikpt= 14
  14      2.0000  2.0000  2.0000  2.0000  0.0000  0.0000  0.0000  0.0000  0.0000
          0.0000  0.0000  0.0000  0.0000

 k-point  15
 Eigenvalues in Hartree for ikpt=  15
  15     -0.2404 -0.0492  0.0360  0.0775  0.2281  0.3241  0.3691  0.3907  0.5136
          0.5568  0.6076  0.6187  0.6207
 Writing out eigenvalues/vectors for ikpt= 15
 Occupation numbers for ikpt= 15
  15      2.0000  2.0000  2.0000  2.0000  0.0000  0.0000  0.0000  0.0000  0.0000
          0.0000  0.0000  0.0000  0.0000

 k-point  16
 Eigenvalues in Hartree for ikpt=  16
  16     -0.2381 -0.0521  0.0207  0.0873  0.2389  0.3506  0.3748  0.4108  0.4497
          0.4702  0.5978  0.6862  0.7126
 Writing out eigenvalues/vectors for ikpt= 16
 Occupation numbers for ikpt= 16
  16      2.0000  2.0000  2.0000  2.0000  0.0000  0.0000  0.0000  0.0000  0.0000
          0.0000  0.0000  0.0000  0.0000

 k-point  17
 Eigenvalues in Hartree for ikpt=  17
  17     -0.2517 -0.0310  0.0308  0.1038  0.2593  0.3462  0.3527  0.3658  0.4176
          0.5116  0.5942  0.6348  0.6481
 Writing out eigenvalues/vectors for ikpt= 17
 Occupation numbers for ikpt= 17
  17      2.0000  2.0000  2.0000  2.0000  0.0000  0.0000  0.0000  0.0000  0.0000
          0.0000  0.0000  0.0000  0.0000

 k-point  18
 Eigenvalues in Hartree for ikpt=  18
  18     -0.2444 -0.0381  0.0650  0.0650  0.1986  0.2323  0.4600  0.4600  0.4983
          0.5603  0.6445  0.6554  0.6554
 Writing out eigenvalues/vectors for ikpt= 18
 Occupation numbers for ikpt= 18
  18      2.0000  2.0000  2.0000  2.0000  0.0000  0.0000  0.0000  0.0000  0.0000
          0.0000  0.0000  0.0000  0.0000

 k-point  19
 Eigenvalues in Hartree for ikpt=  19
  19     -0.2326 -0.0548  0.0400  0.0625  0.2031  0.2477  0.4577  0.4665  0.5349
          0.5688  0.6142  0.6306  0.6927
 Writing out eigenvalues/vectors for ikpt= 19
 Occupation numbers for ikpt= 19
  19      2.0000  2.0000  2.0000  2.0000  0.0000  0.0000  0.0000  0.0000  0.0000
          0.0000  0.0000  0.0000  0.0000

 k-point  20
 Eigenvalues in Hartree for ikpt=  20
  20     -0.2299 -0.0538  0.0109  0.0706  0.2161  0.3167  0.4359  0.4410  0.4543
          0.4946  0.6711  0.7014  0.7175
 Writing out eigenvalues/vectors for ikpt= 20
 Occupation numbers for ikpt= 20
  20      2.0000  2.0000  2.0000  2.0000  0.0000  0.0000  0.0000  0.0000  0.0000
          0.0000  0.0000  0.0000  0.0000

 k-point  21
 Eigenvalues in Hartree for ikpt=  21
  21     -0.2288 -0.0632  0.0570  0.0570  0.1868  0.2173  0.5139  0.5139  0.5654
          0.5988  0.5988  0.6159  0.6286
 Writing out eigenvalues/vectors for ikpt= 21
 Occupation numbers for ikpt= 21
  21      2.0000  2.0000  2.0000  2.0000  0.0000  0.0000  0.0000  0.0000  0.0000
          0.0000  0.0000  0.0000  0.0000

 k-point  22
 Eigenvalues in Hartree for ikpt=  22
  22     -0.2665 -0.0024  0.0647  0.1009  0.2664  0.2918  0.3295  0.3750  0.4370
          0.5196  0.5727  0.5918  0.6672
 Writing out eigenvalues/vectors for ikpt= 22
 Occupation numbers for ikpt= 22
  22      2.0000  2.0000  2.0000  2.0000  0.0000  0.0000  0.0000  0.0000  0.0000
          0.0000  0.0000  0.0000  0.0000

 k-point  23
 Eigenvalues in Hartree for ikpt=  23
  23     -0.2485 -0.0395  0.0430  0.0868  0.2696  0.2986  0.3470  0.3877  0.4791
          0.5218  0.5814  0.6296  0.6736
 Writing out eigenvalues/vectors for ikpt= 23
 Occupation numbers for ikpt= 23
  23      2.0000  2.0000  2.0000  2.0000  0.0000  0.0000  0.0000  0.0000  0.0000
          0.0000  0.0000  0.0000  0.0000

 k-point  24
 Eigenvalues in Hartree for ikpt=  24
  24     -0.2392 -0.0571  0.0374  0.0800  0.2691  0.2905  0.3809  0.4154  0.4417
          0.5401  0.5841  0.6037  0.7107
 Writing out eigenvalues/vectors for ikpt= 24
 Occupation numbers for ikpt= 24
  24      2.0000  2.0000  2.0000  2.0000  0.0000  0.0000  0.0000  0.0000  0.0000
          0.0000  0.0000  0.0000  0.0000

 k-point  25
 Eigenvalues in Hartree for ikpt=  25
  25     -0.2415 -0.0408  0.0426  0.0617  0.2376  0.2701  0.3734  0.4578  0.5059
          0.5466  0.6267  0.6498  0.6696
 Writing out eigenvalues/vectors for ikpt= 25
 Occupation numbers for ikpt= 25
  25      2.0000  2.0000  2.0000  2.0000  0.0000  0.0000  0.0000  0.0000  0.0000
          0.0000  0.0000  0.0000  0.0000

 k-point  26
 Eigenvalues in Hartree for ikpt=  26
  26     -0.2315 -0.0514  0.0186  0.0556  0.2524  0.3218  0.3580  0.4332  0.4703
          0.5620  0.6111  0.6603  0.7163
 Writing out eigenvalues/vectors for ikpt= 26
 Occupation numbers for ikpt= 26
  26      2.0000  2.0000  2.0000  2.0000  0.0000  0.0000  0.0000  0.0000  0.0000
          0.0000  0.0000  0.0000  0.0000

 k-point  27
 Eigenvalues in Hartree for ikpt=  27
  27     -0.2351 -0.0470  0.0132  0.0673  0.2692  0.3290  0.3558  0.4209  0.4501
          0.5018  0.6545  0.6629  0.6927
 Writing out eigenvalues/vectors for ikpt= 27
 Occupation numbers for ikpt= 27
  27      2.0000  2.0000  2.0000  2.0000  0.0000  0.0000  0.0000  0.0000  0.0000
          0.0000  0.0000  0.0000  0.0000

 k-point  28
 Eigenvalues in Hartree for ikpt=  28
  28     -0.2282 -0.0578  0.0376  0.0432  0.2262  0.2583  0.4341  0.4590  0.5239
          0.5880  0.5963  0.6447  0.7166
 Writing out eigenvalues/vectors for ikpt= 28
 Occupation numbers for ikpt= 28
  28      2.0000  2.0000  2.0000  2.0000  0.0000  0.0000  0.0000  0.0000  0.0000
          0.0000  0.0000  0.0000  0.0000

 k-point  29
 Eigenvalues in Hartree for ikpt=  29
  29     -0.2276 -0.0507  0.0197  0.0325  0.2936  0.3412  0.3454  0.3561  0.5246
          0.5876  0.5984  0.6513  0.7315
 Writing out eigenvalues/vectors for ikpt= 29
 Occupation numbers for ikpt= 29
  29      2.0000  2.0000  2.0000  2.0000  0.0000  0.0000  0.0000  0.0000  0.0000
          0.0000  0.0000  0.0000  0.0000
 Test on the normalization of the wavefunctions
  min sum_G |a(n,k,G)| =  1.000000
  max sum_G |a(n,k,G)| =  1.000000
 Test on the orthogonalization of the wavefunctions
  min sum_G a(n,k,G)a(n',k,G) =  0.000000
  max sum_G a(n,k,G)a(n',k,G) =  0.000000

================================================================================

 ----iterations are completed or convergence reached----


 outwf: write wavefunction to file alas-o_DS2_WFK, with accesswff -1
 leave_test : synchronization done...
 outwf with iomode: -1, cpu:     0.02, wall:     0.02

== END DATASET(S) ==============================================================
================================================================================
  
 -outvars: echo values of variables after computation  --------
            acell      1.0695900000E+01  1.0695900000E+01  1.0695900000E+01 Bohr
              amu      2.69815390E+01  7.49215900E+01
           diemac      1.20000000E+01
             ecut      2.00000000E+01 Hartree
           etotal1    -8.5228616897E+00
            fcart1    -0.0000000000E+00 -0.0000000000E+00 -0.0000000000E+00
                      -0.0000000000E+00 -0.0000000000E+00 -0.0000000000E+00
           getden1          0
           getden2         -1
             iscf1          7
             iscf2         -2
           istwfk2       1    0    0    0    1    0    0    0    0    0
                         0    0    0    0    0    0    0    0    0    0
                         1    0    0    0    0    0    0    0    0
                       outvar_i_n : Printing only first  50 k-points.
              ixc           7
           jdtset        1    2
              kpt1    -6.25000000E-02 -1.25000000E-01  0.00000000E+00
                      -6.25000000E-02 -2.50000000E-01  0.00000000E+00
                      -1.25000000E-01 -1.87500000E-01  0.00000000E+00
                      -6.25000000E-02 -1.87500000E-01  6.25000000E-02
                      -6.25000000E-02 -3.75000000E-01  0.00000000E+00
                      -1.25000000E-01 -3.12500000E-01  0.00000000E+00
                      -6.25000000E-02 -3.12500000E-01  6.25000000E-02
                      -1.87500000E-01 -2.50000000E-01  0.00000000E+00
                      -1.25000000E-01 -2.50000000E-01  6.25000000E-02
                      -6.25000000E-02 -2.50000000E-01  1.25000000E-01
                      -6.25000000E-02  5.00000000E-01  0.00000000E+00
                      -1.25000000E-01 -4.37500000E-01  0.00000000E+00
                      -6.25000000E-02 -4.37500000E-01  6.25000000E-02
                      -1.87500000E-01 -3.75000000E-01  0.00000000E+00
                      -1.25000000E-01 -3.75000000E-01  6.25000000E-02
                      -6.25000000E-02 -3.75000000E-01  1.25000000E-01
                      -2.50000000E-01 -3.12500000E-01  0.00000000E+00
                      -1.87500000E-01 -3.12500000E-01  6.25000000E-02
                      -1.25000000E-01 -3.12500000E-01  1.25000000E-01
                      -6.25000000E-02 -3.12500000E-01  1.87500000E-01
                      -6.25000000E-02  3.75000000E-01  0.00000000E+00
                      -1.25000000E-01  4.37500000E-01  0.00000000E+00
                      -1.87500000E-01  5.00000000E-01  0.00000000E+00
                      -1.25000000E-01  5.00000000E-01  6.25000000E-02
                      -2.50000000E-01 -4.37500000E-01  0.00000000E+00
                      -1.87500000E-01 -4.37500000E-01  6.25000000E-02
                      -1.25000000E-01 -4.37500000E-01  1.25000000E-01
                      -6.25000000E-02 -4.37500000E-01  1.87500000E-01
                      -3.12500000E-01 -3.75000000E-01  0.00000000E+00
                      -2.50000000E-01 -3.75000000E-01  6.25000000E-02
                      -1.87500000E-01 -3.75000000E-01  1.25000000E-01
                      -1.25000000E-01 -3.75000000E-01  1.87500000E-01
                      -6.25000000E-02 -3.75000000E-01  2.50000000E-01
                      -6.25000000E-02  2.50000000E-01  0.00000000E+00
                      -1.25000000E-01  3.12500000E-01  0.00000000E+00
                      -1.87500000E-01  3.75000000E-01  0.00000000E+00
                      -2.50000000E-01  4.37500000E-01  0.00000000E+00
                      -3.12500000E-01  5.00000000E-01  0.00000000E+00
                      -2.50000000E-01  5.00000000E-01  6.25000000E-02
                      -1.87500000E-01  5.00000000E-01  1.25000000E-01
                      -3.75000000E-01 -4.37500000E-01  0.00000000E+00
                      -3.12500000E-01 -4.37500000E-01  6.25000000E-02
                      -2.50000000E-01 -4.37500000E-01  1.25000000E-01
                      -1.87500000E-01 -4.37500000E-01  1.87500000E-01
                      -1.25000000E-01 -4.37500000E-01  2.50000000E-01
                      -6.25000000E-02 -4.37500000E-01  3.12500000E-01
                      -6.25000000E-02  1.25000000E-01  0.00000000E+00
                      -1.25000000E-01  1.87500000E-01  0.00000000E+00
                      -1.87500000E-01  2.50000000E-01  0.00000000E+00
                      -2.50000000E-01  3.12500000E-01  0.00000000E+00
              kpt2     0.00000000E+00  0.00000000E+00  0.00000000E+00
                       1.25000000E-01  0.00000000E+00  0.00000000E+00
                       2.50000000E-01  0.00000000E+00  0.00000000E+00
                       3.75000000E-01  0.00000000E+00  0.00000000E+00
                       5.00000000E-01  0.00000000E+00  0.00000000E+00
                       1.25000000E-01  1.25000000E-01  0.00000000E+00
                       2.50000000E-01  1.25000000E-01  0.00000000E+00
                       3.75000000E-01  1.25000000E-01  0.00000000E+00
                       5.00000000E-01  1.25000000E-01  0.00000000E+00
                      -3.75000000E-01  1.25000000E-01  0.00000000E+00
                      -2.50000000E-01  1.25000000E-01  0.00000000E+00
                      -1.25000000E-01  1.25000000E-01  0.00000000E+00
                       2.50000000E-01  2.50000000E-01  0.00000000E+00
                       3.75000000E-01  2.50000000E-01  0.00000000E+00
                       5.00000000E-01  2.50000000E-01  0.00000000E+00
                      -3.75000000E-01  2.50000000E-01  0.00000000E+00
                      -2.50000000E-01  2.50000000E-01  0.00000000E+00
                       3.75000000E-01  3.75000000E-01  0.00000000E+00
                       5.00000000E-01  3.75000000E-01  0.00000000E+00
                      -3.75000000E-01  3.75000000E-01  0.00000000E+00
                       5.00000000E-01  5.00000000E-01  0.00000000E+00
                       3.75000000E-01  2.50000000E-01  1.25000000E-01
                       5.00000000E-01  2.50000000E-01  1.25000000E-01
                      -3.75000000E-01  2.50000000E-01  1.25000000E-01
                       5.00000000E-01  3.75000000E-01  1.25000000E-01
                      -3.75000000E-01  3.75000000E-01  1.25000000E-01
                      -2.50000000E-01  3.75000000E-01  1.25000000E-01
                      -3.75000000E-01  5.00000000E-01  1.25000000E-01
                      -2.50000000E-01  5.00000000E-01  2.50000000E-01
                       outvar_i_n : Printing only first  50 k-points.
         kptrlatt1       8   -8    8     -8    8    8     -8   -8    8
         kptrlatt2       8    0    0      0    8    0      0    0    8
          kptrlen1     8.55672000E+01
          kptrlen2     6.05051474E+01
          kssform1          1
          kssform2          3
P           mkmem1         60
P           mkmem2         29
            natom           2
            nband1          5
            nband2         15
         nbandkss1          0
         nbandkss2         13
           nbdbuf1          0
           nbdbuf2          2
           ndtset           2
            ngfft          32      32      32
             nkpt1         60
             nkpt2         29
            nstep         100
             nsym          24
           ntypat           2
              occ      2.000000  2.000000  2.000000  2.000000  0.000000
            rprim     -5.0000000000E-01  0.0000000000E+00  5.0000000000E-01
                       0.0000000000E+00  5.0000000000E-01  5.0000000000E-01
                      -5.0000000000E-01  5.0000000000E-01  0.0000000000E+00
           shiftk1     5.00000000E-01  5.00000000E-01  5.00000000E-01
           shiftk2     0.00000000E+00  0.00000000E+00  0.00000000E+00
          spgroup         216
           strten1     5.5774589137E-05  5.5774589137E-05  5.5774589137E-05
                       0.0000000000E+00  0.0000000000E+00  0.0000000000E+00
        symmorphi           0
           symrel      1  0  0   0  1  0   0  0  1       0 -1  1   0 -1  0   1 -1  0
                      -1  0  0  -1  0  1  -1  1  0       0  1 -1   1  0 -1   0  0 -1
                      -1  0  0  -1  1  0  -1  0  1       0 -1  1   1 -1  0   0 -1  0
                       1  0  0   0  0  1   0  1  0       0  1 -1   0  0 -1   1  0 -1
                      -1  0  1  -1  1  0  -1  0  0       0 -1  0   1 -1  0   0 -1  1
                       1  0 -1   0  0 -1   0  1 -1       0  1  0   0  0  1   1  0  0
                       1  0 -1   0  1 -1   0  0 -1       0 -1  0   0 -1  1   1 -1  0
                      -1  0  1  -1  0  0  -1  1  0       0  1  0   1  0  0   0  0  1
                       0  0 -1   0  1 -1   1  0 -1       1 -1  0   0 -1  1   0 -1  0
                       0  0  1   1  0  0   0  1  0      -1  1  0  -1  0  0  -1  0  1
                       0  0  1   0  1  0   1  0  0       1 -1  0   0 -1  0   0 -1  1
                       0  0 -1   1  0 -1   0  1 -1      -1  1  0  -1  0  1  -1  0  0
           toldfe1     1.00000000E-06 Hartree
           toldfe2     0.00000000E+00 Hartree
           tolwfr1     0.00000000E+00
           tolwfr2     1.00000000E-10
            typat      1  2
              wtk1       0.01172    0.01172    0.01172    0.02344    0.01172    0.01172
                         0.02344    0.01172    0.02344    0.02344    0.01172    0.01172
                         0.02344    0.01172    0.02344    0.02344    0.01172    0.02344
                         0.02344    0.02344    0.01172    0.01172    0.01172    0.02344
                         0.01172    0.02344    0.02344    0.02344    0.01172    0.02344
                         0.02344    0.02344    0.02344    0.01172    0.01172    0.01172
                         0.01172    0.01172    0.02344    0.02344    0.01172    0.02344
                         0.02344    0.02344    0.02344    0.02344    0.01172    0.01172
                         0.01172    0.01172
              wtk2       0.00195    0.01563    0.01563    0.01563    0.00781    0.01172
                         0.04688    0.04688    0.04688    0.04688    0.04688    0.02344
                         0.01172    0.04688    0.04688    0.04688    0.02344    0.01172
                         0.04688    0.02344    0.00586    0.04688    0.09375    0.04688
                         0.04688    0.09375    0.04688    0.02344    0.01172
                       outvars : Printing only first  50 k-points.
           xangst      0.0000000000E+00  0.0000000000E+00  0.0000000000E+00
                      -1.4150066263E+00  1.4150066263E+00  1.4150066263E+00
            xcart      0.0000000000E+00  0.0000000000E+00  0.0000000000E+00
                      -2.6739750000E+00  2.6739750000E+00  2.6739750000E+00
             xred      0.0000000000E+00  0.0000000000E+00  0.0000000000E+00
                       2.5000000000E-01  2.5000000000E-01  2.5000000000E-01
            znucl       13.00000   33.00000

================================================================================
  

================================================================================

 Suggested references for the acknowledgment of ABINIT usage.

 The users of ABINIT have little formal obligations with respect to the ABINIT group
 (those specified in the GNU General Public License, http://www.gnu.org/copyleft/gpl.txt).
 However, it is common practice in the scientific literature,
 to acknowledge the efforts of people that have made the research possible.
 In this spirit, please find below suggested citations of work written by ABINIT developers,
 corresponding to implementations inside of ABINIT that you have used in the present run.
 Note also that it will be of great value to readers of publications presenting these results,
 to read papers enabling them to understand the theoretical formalism and details
 of the ABINIT implementation.
 For information on why they are suggested, see also http://www.abinit.org/about/?text=acknowledgments.

 [1] Ab initio pseudopotentials for electronic structure calculations of poly-atomic systems, 
 using density-functional theory.
 M. Fuchs, M. Scheffler, Comput. Phys. Commun. 119, 67 (1999).
 Comment : Some pseudopotential generated using the FHI code were used.

 [2] ABINIT : First-principles approach of materials and nanosystem properties.
 X. Gonze, B. Amadon, P.-M. Anglade, J.-M. Beuken, F. Bottin, P. Boulanger, F. Bruneval,
 D. Caliste, R. Caracas, M. Cote, T. Deutsch, L. Genovese, Ph. Ghosez, M. Giantomassi
 S. Goedecker, D.R. Hamann, P. Hermet, F. Jollet, G. Jomard, S. Leroux, M. Mancini, S. Mazevet,
 M.J.T. Oliveira, G. Onida, Y. Pouillon, T. Rangel, G.-M. Rignanese, D. Sangalli, R. Shaltaf,
 M. Torrent, M.J. Verstraete, G. Zerah, J.W. Zwanziger
 Computer Phys. Comm. 180, 2582-2615 (2009).
 Comment : the third generic paper describing the ABINIT project.
 Note that a version of this paper, that is not formatted for Computer Phys. Comm. 
 is available at http://www.abinit.org/about/ABINIT_CPC_v10.pdf .
 The licence allows the authors to put it on the Web.

 [3] A brief introduction to the ABINIT software package.
 X. Gonze, G.-M. Rignanese, M. Verstraete, J.-M. Beuken, Y. Pouillon, R. Caracas, F. Jollet,
 M. Torrent, G. Zerah, M. Mikami, Ph. Ghosez, M. Veithen, J.-Y. Raty, V. Olevano, F. Bruneval,
 L. Reining, R. Godby, G. Onida, D.R. Hamann, and D.C. Allan.
 Z. Kristallogr. 220, 558-562 (2005).
 Comment : the second generic paper describing the ABINIT project. Note that this paper
 should be cited especially if you are using the GW part of ABINIT, as several authors
 of this part are not in the list of authors of the first or third paper.
 The .pdf of the latter paper is available at http://www.abinit.org/about/zfk_0505-06_558-562.pdf.
 Note that it should not redistributed (Copyright by Oldenburg Wissenshaftverlag,
 the licence allows the authors to put it on the Web).


 And optionally :

 [4] First-principles computation of material properties : the ABINIT software project. 
 X. Gonze, J.-M. Beuken, R. Caracas, F. Detraux, M. Fuchs, G.-M. Rignanese, L. Sindic,
 M. Verstraete, G. Zerah, F. Jollet, M. Torrent, A. Roy, M. Mikami, Ph. Ghosez, J.-Y. Raty, D.C. Allan.
 Computational Materials Science 25, 478-492 (2002). http://dx.doi.org/10.1016/S0927-0256(02)00325-7
 Comment : the original paper describing the ABINIT project.

 [5] Fast radix 2, 3, 4 and 5 kernels for Fast Fourier Transformations
 on computers with overlapping multiply-add instructions.
 S. Goedecker, SIAM J. on Scientific Computing 18, 1605 (1997).
 Proc.   0 individual time (sec): cpu=         33.2  wall=         33.3

 Calculation completed.
.Delivered    6 WARNINGs and   5 COMMENTs to log file.
