Authorization required, but no authorization protocol specified
  ABINIT 9.7.4
  
-instrng: 102 lines of input have been read from file inputs/01_hchain.abi


.Version 9.7.4 of ABINIT 
.(MPI version, prepared for a x86_64_linux_gnu9.4 computer) 

.Copyright (C) 1998-2022 ABINIT group . 
 ABINIT comes with ABSOLUTELY NO WARRANTY.
 It is free software, and you are welcome to redistribute it
 under certain conditions (GNU General Public License,
 see ~abinit/COPYING or http://www.gnu.org/copyleft/gpl.txt).

 ABINIT is a project of the Universite Catholique de Louvain,
 Corning Inc. and other collaborators, see ~abinit/doc/developers/contributors.txt .
 Please read https://docs.abinit.org/theory/acknowledgments for suggested
 acknowledgments of the ABINIT effort.
 For more information, see https://www.abinit.org .

.Starting date : Tue 13 Dec 2022.
- ( at 09h40 )
  

 ++++++++++++++++++++++++++++++++++++++++++++++++++++++++++++++++++++++++++++++

 === Build Information === 
  Version       : 9.7.4
  Build target  : x86_64_linux_gnu9.4
  Build date    : 20220527

 === Compiler Suite === 
  C compiler       : gnu9.4
  C++ compiler     : gnu9.4
  Fortran compiler : gnu9.4
  CFLAGS           : -g -O2
  CXXFLAGS         : -g -O2 -mtune=native -march=native
  FCFLAGS          : -g -ffree-line-length-none  -fopenmp   -I/data/shared/yambo-libs/de ...
  FC_LDFLAGS       : 

 === Optimizations === 
  Debug level        : basic
  Optimization level : standard
  Architecture       : unknown_unknown

 === Multicore === 
  Parallel build : yes
  Parallel I/O   : yes
  openMP support : yes
  GPU support    : 

 === Connectors / Fallbacks === 
  LINALG flavor  : netlib
  FFT flavor     : goedecker
  HDF5           : yes
  NetCDF         : yes
  NetCDF Fortran : yes
  LibXC          : yes
  Wannier90      : no

 === Experimental features === 
  Exports             : 
  GW double-precision : 

 ++++++++++++++++++++++++++++++++++++++++++++++++++++++++++++++++++++++++++++++


 ++++++++++++++++++++++++++++++++++++++++++++++++++++++++++++++++++++++++++++++
 Default optimizations:
   -O2 -mtune=native -march=native


 Optimizations for 43_ptgroups:
   -O0


 ++++++++++++++++++++++++++++++++++++++++++++++++++++++++++++++++++++++++++++++


 ++++++++++++++++++++++++++++++++++++++++++++++++++++++++++++++++++++++++++++++
 CPP options activated during the build:

                    CC_GNU                   CXX_GNU                    FC_GNU
 
 HAVE_FC_ALLOCATABLE_DT...             HAVE_FC_ASYNC         HAVE_FC_BACKTRACE
 
  HAVE_FC_COMMAND_ARGUMENT      HAVE_FC_COMMAND_LINE        HAVE_FC_CONTIGUOUS
 
           HAVE_FC_CPUTIME              HAVE_FC_EXIT             HAVE_FC_FLUSH
 
             HAVE_FC_GAMMA            HAVE_FC_GETENV   HAVE_FC_IEEE_ARITHMETIC
 
   HAVE_FC_IEEE_EXCEPTIONS          HAVE_FC_INT_QUAD             HAVE_FC_IOMSG
 
     HAVE_FC_ISO_C_BINDING  HAVE_FC_ISO_FORTRAN_2008        HAVE_FC_LONG_LINES
 
        HAVE_FC_MOVE_ALLOC  HAVE_FC_ON_THE_FLY_SHAPE           HAVE_FC_PRIVATE
 
         HAVE_FC_PROTECTED           HAVE_FC_SHIFTLR         HAVE_FC_STREAM_IO
 
            HAVE_FC_SYSTEM          HAVE_FORTRAN2003                 HAVE_HDF5
 
             HAVE_HDF5_MPI        HAVE_LIBPAW_ABINIT      HAVE_LIBTETRA_ABINIT
 
                HAVE_LIBXC                  HAVE_MPI                 HAVE_MPI2
 
       HAVE_MPI_IALLGATHER       HAVE_MPI_IALLREDUCE        HAVE_MPI_IALLTOALL
 
       HAVE_MPI_IALLTOALLV           HAVE_MPI_IBCAST         HAVE_MPI_IGATHERV
 
        HAVE_MPI_INTEGER16               HAVE_MPI_IO HAVE_MPI_TYPE_CREATE_S...
 
               HAVE_NETCDF       HAVE_NETCDF_FORTRAN   HAVE_NETCDF_FORTRAN_MPI
 
           HAVE_NETCDF_MPI                HAVE_NUMPY         HAVE_OMP_COLLAPSE
 
               HAVE_OPENMP             HAVE_OS_LINUX         HAVE_TIMER_ABINIT
 
 ++++++++++++++++++++++++++++++++++++++++++++++++++++++++++++++++++++++++++++++

- input  file    -> inputs/01_hchain.abi
- output file    -> output/01_hchain.abo
- root for input  files -> io_dir/01_hchain_i
- root for output files -> io_dir/01_hchain_o

 Netcdf library supports MPI-IO
-instrng: 102 lines of input have been read from file inputs/01_hchain.abi

 For atom type 1, psp file is pseudo/H.psp8
  read the values zionpsp=  1.0 , pspcod=   8 , lmax=   1

 inpspheads: deduce mpsang = 2, n1xccc = 0.

======================================================= 
 invars1m : enter jdtset= 1

 symlatt: the Bravais lattice is tP (primitive tetragonal)
  xred   is defined in input file
 ingeo: takes atomic coordinates from input array xred

--- !COMMENT
src_file: m_ingeo.F90
src_line: 900
message: |
    The tolerance on symmetries =   1.000E-05 is bigger than 1.0e-8.
    In order to avoid spurious effects, the atomic coordinates have been
    symmetrized before storing them in the dataset internal variable.
    So, do not be surprised by the fact that your input variables (xcart, xred, ...)
    do not correspond exactly to the ones echoed by ABINIT, the latter being used to do the calculations.
    This is not a problem per se.
    Still, in order to avoid this symmetrization (e.g. for specific debugging/development), decrease tolsym to 1.0e-8 or lower,
    or (much preferred) use input primitive vectors that are accurate to better than 1.0e-8.
    This message will only be printed once, even if there are other datasets where tolsym is bigger than 1.0e-8.
...


 symlatt: the Bravais lattice is tP (primitive tetragonal)

 symlatt: the Bravais lattice is tP (primitive tetragonal)
 symspgr: spgroup= 123  P4/m m m   (=D4h^1)
 symspgr: optical characteristics = uniaxial
 Optical axis (in reduced coordinates, real space ) :   1   0   0

======================================================= 
 invars1m : enter jdtset= 2

 symlatt: the Bravais lattice is tP (primitive tetragonal)
  xred   is defined in input file
 ingeo: takes atomic coordinates from input array xred

 symlatt: the Bravais lattice is tP (primitive tetragonal)

 symlatt: the Bravais lattice is tP (primitive tetragonal)
 symspgr: spgroup= 123  P4/m m m   (=D4h^1)
 symspgr: optical characteristics = uniaxial
 Optical axis (in reduced coordinates, real space ) :   1   0   0

======================================================= 
 invars1m : enter jdtset= 3

 symlatt: the Bravais lattice is tP (primitive tetragonal)
  xred   is defined in input file
 ingeo: takes atomic coordinates from input array xred

 symlatt: the Bravais lattice is tP (primitive tetragonal)

 symlatt: the Bravais lattice is tP (primitive tetragonal)
 symspgr: spgroup= 123  P4/m m m   (=D4h^1)
 symspgr: optical characteristics = uniaxial
 Optical axis (in reduced coordinates, real space ) :   1   0   0

 symlatt: the Bravais lattice is tP (primitive tetragonal)
       Homogeneous q point set in the B.Z.
 Grid q points  :        6
  1)   0.00000000E+00  0.00000000E+00  0.00000000E+00
  2)   1.66666667E-01  0.00000000E+00  0.00000000E+00
  3)   3.33333333E-01  0.00000000E+00  0.00000000E+00
  4)   5.00000000E-01  0.00000000E+00  0.00000000E+00
  5)  -3.33333333E-01  0.00000000E+00  0.00000000E+00
  6)  -1.66666667E-01  0.00000000E+00  0.00000000E+00
 symkpt : the number of k-points, thanks to the symmetries,
 is reduced to     4 .

======================================================= 
 invars1m : enter jdtset= 4

 symlatt: the Bravais lattice is tP (primitive tetragonal)
  xred   is defined in input file
 ingeo: takes atomic coordinates from input array xred

 symlatt: the Bravais lattice is tP (primitive tetragonal)

 symlatt: the Bravais lattice is tP (primitive tetragonal)
 symspgr: spgroup= 123  P4/m m m   (=D4h^1)
 symspgr: optical characteristics = uniaxial
 Optical axis (in reduced coordinates, real space ) :   1   0   0

 symlatt: the Bravais lattice is tP (primitive tetragonal)
       Homogeneous q point set in the B.Z.
 Grid q points  :        6
  1)   0.00000000E+00  0.00000000E+00  0.00000000E+00
  2)   1.66666667E-01  0.00000000E+00  0.00000000E+00
  3)   3.33333333E-01  0.00000000E+00  0.00000000E+00
  4)   5.00000000E-01  0.00000000E+00  0.00000000E+00
  5)  -3.33333333E-01  0.00000000E+00  0.00000000E+00
  6)  -1.66666667E-01  0.00000000E+00  0.00000000E+00
 symkpt : the number of k-points, thanks to the symmetries,
 is reduced to     4 .

======================================================= 
 invars1m : enter jdtset= 5

 symlatt: the Bravais lattice is tP (primitive tetragonal)
  xred   is defined in input file
 ingeo: takes atomic coordinates from input array xred

 symlatt: the Bravais lattice is tP (primitive tetragonal)

 symlatt: the Bravais lattice is tP (primitive tetragonal)
 symspgr: spgroup= 123  P4/m m m   (=D4h^1)
 symspgr: optical characteristics = uniaxial
 Optical axis (in reduced coordinates, real space ) :   1   0   0

 symlatt: the Bravais lattice is tP (primitive tetragonal)
       Homogeneous q point set in the B.Z.
 Grid q points  :        6
  1)   0.00000000E+00  0.00000000E+00  0.00000000E+00
  2)   1.66666667E-01  0.00000000E+00  0.00000000E+00
  3)   3.33333333E-01  0.00000000E+00  0.00000000E+00
  4)   5.00000000E-01  0.00000000E+00  0.00000000E+00
  5)  -3.33333333E-01  0.00000000E+00  0.00000000E+00
  6)  -1.66666667E-01  0.00000000E+00  0.00000000E+00
 symkpt : the number of k-points, thanks to the symmetries,
 is reduced to     4 .

======================================================= 
 invars1m : enter jdtset= 6

 symlatt: the Bravais lattice is tP (primitive tetragonal)
  xred   is defined in input file
 ingeo: takes atomic coordinates from input array xred

 symlatt: the Bravais lattice is tP (primitive tetragonal)

 symlatt: the Bravais lattice is tP (primitive tetragonal)
 symspgr: spgroup= 123  P4/m m m   (=D4h^1)
 symspgr: optical characteristics = uniaxial
 Optical axis (in reduced coordinates, real space ) :   1   0   0

 symlatt: the Bravais lattice is tP (primitive tetragonal)
       Homogeneous q point set in the B.Z.
 Grid q points  :        6
  1)   0.00000000E+00  0.00000000E+00  0.00000000E+00
  2)   1.66666667E-01  0.00000000E+00  0.00000000E+00
  3)   3.33333333E-01  0.00000000E+00  0.00000000E+00
  4)   5.00000000E-01  0.00000000E+00  0.00000000E+00
  5)  -3.33333333E-01  0.00000000E+00  0.00000000E+00
  6)  -1.66666667E-01  0.00000000E+00  0.00000000E+00
 symkpt : the number of k-points, thanks to the symmetries,
 is reduced to     4 .

======================================================= 
 invars1m : enter jdtset= 7

 symlatt: the Bravais lattice is tP (primitive tetragonal)
  xred   is defined in input file
 ingeo: takes atomic coordinates from input array xred

 symlatt: the Bravais lattice is tP (primitive tetragonal)

 symlatt: the Bravais lattice is tP (primitive tetragonal)
 symspgr: spgroup= 123  P4/m m m   (=D4h^1)
 symspgr: optical characteristics = uniaxial
 Optical axis (in reduced coordinates, real space ) :   1   0   0

 symlatt: the Bravais lattice is tP (primitive tetragonal)
       Homogeneous q point set in the B.Z.
 Grid q points  :        6
  1)   0.00000000E+00  0.00000000E+00  0.00000000E+00
  2)   1.66666667E-01  0.00000000E+00  0.00000000E+00
  3)   3.33333333E-01  0.00000000E+00  0.00000000E+00
  4)   5.00000000E-01  0.00000000E+00  0.00000000E+00
  5)  -3.33333333E-01  0.00000000E+00  0.00000000E+00
  6)  -1.66666667E-01  0.00000000E+00  0.00000000E+00
 symkpt : the number of k-points, thanks to the symmetries,
 is reduced to     4 .
 For input ecut=  1.000000E+01 best grid ngfft=      16      60      60
       max ecut=  1.178015E+01

 ==== FFT mesh ====
  FFT mesh divisions ........................    16   60   60
  Augmented FFT divisions ...................    17   61   60
  FFT algorithm .............................   112
  FFT cache size ............................    16
 getmpw: optimal value of mpw= 2932
 For input ecut=  1.000000E+01 best grid ngfft=      16      60      60
       max ecut=  1.178015E+01

 ==== FFT mesh ====
  FFT mesh divisions ........................    16   60   60
  Augmented FFT divisions ...................    17   61   60
  FFT algorithm .............................   112
  FFT cache size ............................    16
 getmpw: optimal value of mpw= 2952
 For input ecut=  1.000000E+01 best grid ngfft=      16      60      60
       max ecut=  1.178015E+01

 ==== FFT mesh ====
  FFT mesh divisions ........................    16   60   60
  Augmented FFT divisions ...................    17   61   60
  FFT algorithm .............................   112
  FFT cache size ............................    16
 getmpw: optimal value of mpw= 2952
 getmpw: optimal value of mpw= 2952
 For input ecut=  1.000000E+01 best grid ngfft=      16      60      60
       max ecut=  1.178015E+01

 ==== FFT mesh ====
  FFT mesh divisions ........................    16   60   60
  Augmented FFT divisions ...................    17   61   60
  FFT algorithm .............................   112
  FFT cache size ............................    16
 getmpw: optimal value of mpw= 2952
 getmpw: optimal value of mpw= 2952
 For input ecut=  1.000000E+01 best grid ngfft=      16      60      60
       max ecut=  1.178015E+01

 ==== FFT mesh ====
  FFT mesh divisions ........................    16   60   60
  Augmented FFT divisions ...................    17   61   60
  FFT algorithm .............................   112
  FFT cache size ............................    16
 getmpw: optimal value of mpw= 2952
 getmpw: optimal value of mpw= 2952
 For input ecut=  1.000000E+01 best grid ngfft=      16      60      60
       max ecut=  1.178015E+01

 ==== FFT mesh ====
  FFT mesh divisions ........................    16   60   60
  Augmented FFT divisions ...................    17   61   60
  FFT algorithm .............................   112
  FFT cache size ............................    16
 getmpw: optimal value of mpw= 2952
 getmpw: optimal value of mpw= 2952
 For input ecut=  1.000000E+01 best grid ngfft=      16      60      60
       max ecut=  1.178015E+01

 ==== FFT mesh ====
  FFT mesh divisions ........................    16   60   60
  Augmented FFT divisions ...................    17   61   60
  FFT algorithm .............................   112
  FFT cache size ............................    16
 getmpw: optimal value of mpw= 2952
 getmpw: optimal value of mpw= 2952

 DATASET    1 : space group P4/m m m (#123); Bravais tP (primitive tetrag.)

 getdim_nloc : deduce lmnmax  =   5, lnmax  =   3,
                      lmnmaxso=   5, lnmaxso=   3.
 For input ecut=  3.810104E+00 best grid ngfft=      10      36      36
       max ecut=  4.286623E+00

 ==== FFT mesh ====
  FFT mesh divisions ........................    10   36   36
  Augmented FFT divisions ...................    11   37   36
  FFT algorithm .............................   101
  FFT cache size ............................    16
 getmpw: optimal value of mpw= 315
memory: analysis of memory needs
================================================================================
 Values of the parameters that define the memory need for DATASET  1.
     intxc =       0    ionmov =       0      iscf =       7    lmnmax =       3
     lnmax =       3     mgfft =      60  mpssoang =       2    mqgrid =    3001
     natom =       2  nloc_mem =       1    nspden =       1   nspinor =       1
    nsppol =       1      nsym =       8    n1xccc =       0    ntypat =       1
    occopt =       1   xclevel =       2
-    mband =           2        mffmem =           1         mkmem =           4
       mpw =        2932          nfft =       57600          nkpt =           4
 For the susceptibility and dielectric matrices, or tddft :
   mgfft =        36  nbnd_in_blk=     1    nfft =     12960     npw =       315
================================================================================
P This job should need less than                      22.038 Mbytes of memory.
  Rough estimation (10% accuracy) of disk space for files :
_ WF disk file :      0.360 Mbytes ; DEN or POT disk file :      0.441 Mbytes.
================================================================================

 Biggest array : f_fftgr(disk), with      7.0333 MBytes.
 memana : allocated an array of      7.033 Mbytes, for testing purposes.
 memana: allocated      22.038Mbytes, for testing purposes. 
 The job will continue.

 DATASET    2 : space group P4/m m m (#123); Bravais tP (primitive tetrag.)

 getdim_nloc : deduce lmnmax  =   5, lnmax  =   3,
                      lmnmaxso=   5, lnmaxso=   3.
 For input ecut=  3.810104E+00 best grid ngfft=      10      36      36
       max ecut=  4.286623E+00

 ==== FFT mesh ====
  FFT mesh divisions ........................    10   36   36
  Augmented FFT divisions ...................    11   37   36
  FFT algorithm .............................   101
  FFT cache size ............................    16
 getmpw: optimal value of mpw= 315
memory: analysis of memory needs
================================================================================
 Values of the parameters that define the memory need for DATASET  2.
     intxc =       0    ionmov =       0      iscf =      -2    lmnmax =       3
     lnmax =       3     mgfft =      60  mpssoang =       2    mqgrid =    3001
     natom =       2  nloc_mem =       1    nspden =       1   nspinor =       1
    nsppol =       1      nsym =       8    n1xccc =       0    ntypat =       1
    occopt =       1   xclevel =       2
-    mband =          10        mffmem =           1         mkmem =           4
       mpw =        2952          nfft =       57600          nkpt =           4
 For the susceptibility and dielectric matrices, or tddft :
   mgfft =        36  nbnd_in_blk=     5    nfft =     12960     npw =       315
================================================================================
P This job should need less than                      13.135 Mbytes of memory.
  Rough estimation (10% accuracy) of disk space for files :
_ WF disk file :      1.804 Mbytes ; DEN or POT disk file :      0.441 Mbytes.
================================================================================

 Biggest array : cg(disk), with      1.8038 MBytes.
 memana : allocated an array of      1.804 Mbytes, for testing purposes.
 memana: allocated      13.135Mbytes, for testing purposes. 
 The job will continue.

 DATASET    3 : space group P4/m m m (#123); Bravais tP (primitive tetrag.)

 getdim_nloc : deduce lmnmax  =   5, lnmax  =   3,
                      lmnmaxso=   5, lnmaxso=   3.
 For input ecut=  3.810104E+00 best grid ngfft=      10      36      36
       max ecut=  4.286623E+00

 ==== FFT mesh ====
  FFT mesh divisions ........................    10   36   36
  Augmented FFT divisions ...................    11   37   36
  FFT algorithm .............................   101
  FFT cache size ............................    16
 getmpw: optimal value of mpw= 315
 memorf : analysis of memory needs
================================================================================
 Values of the parameters that define the memory need for DATASET  3 (RF).
     intxc =       0      iscf =      -3    lmnmax =       3     lnmax =       3
     mgfft =      60  mpssoang =       2    mqgrid =    3001     natom =       2
  nloc_mem =       1    nspden =       1   nspinor =       1    nsppol =       1
      nsym =       8    n1xccc =       0    ntypat =       1    occopt =       1
   xclevel =       2
-    mband =           1        mffmem =           1         mkmem =           6
-   mkqmem =           6        mk1mem =           6           mpw =        2952
      nfft =       57600          nkpt =           6
================================================================================
P This job should need less than                      14.125 Mbytes of memory.
  Rough estimation (10% accuracy) of disk space for files :
_ WF disk file :      0.272 Mbytes ; DEN or POT disk file :      0.441 Mbytes.
================================================================================

 Biggest array : f_fftgr(disk), with      0.4415 MBytes.
 memana : allocated an array of      0.441 Mbytes, for testing purposes.
 memana: allocated      14.125Mbytes, for testing purposes. 
 The job will continue.

 DATASET    4 : space group P4/m m m (#123); Bravais tP (primitive tetrag.)

 getdim_nloc : deduce lmnmax  =   5, lnmax  =   3,
                      lmnmaxso=   5, lnmaxso=   3.
 For input ecut=  3.810104E+00 best grid ngfft=      10      36      36
       max ecut=  4.286623E+00

 ==== FFT mesh ====
  FFT mesh divisions ........................    10   36   36
  Augmented FFT divisions ...................    11   37   36
  FFT algorithm .............................   101
  FFT cache size ............................    16
 getmpw: optimal value of mpw= 315
 memorf : analysis of memory needs
================================================================================
 Values of the parameters that define the memory need for DATASET  4 (RF).
     intxc =       0      iscf =       7    lmnmax =       3     lnmax =       3
     mgfft =      60  mpssoang =       2    mqgrid =    3001     natom =       2
  nloc_mem =       1    nspden =       1   nspinor =       1    nsppol =       1
      nsym =       8    n1xccc =       0    ntypat =       1    occopt =       1
   xclevel =       2
-    mband =           1        mffmem =           1         mkmem =           6
-   mkqmem =           6        mk1mem =           6           mpw =        2952
      nfft =       57600          nkpt =           6
================================================================================
P This job should need less than                      14.565 Mbytes of memory.
  Rough estimation (10% accuracy) of disk space for files :
_ WF disk file :      0.272 Mbytes ; DEN or POT disk file :      0.441 Mbytes.
================================================================================

 Biggest array : f_fftgr(disk), with      0.4415 MBytes.
 memana : allocated an array of      0.441 Mbytes, for testing purposes.
 memana: allocated      14.565Mbytes, for testing purposes. 
 The job will continue.

 DATASET    5 : space group P4/m m m (#123); Bravais tP (primitive tetrag.)

 getdim_nloc : deduce lmnmax  =   5, lnmax  =   3,
                      lmnmaxso=   5, lnmaxso=   3.
 For input ecut=  3.810104E+00 best grid ngfft=      10      36      36
       max ecut=  4.286623E+00

 ==== FFT mesh ====
  FFT mesh divisions ........................    10   36   36
  Augmented FFT divisions ...................    11   37   36
  FFT algorithm .............................   101
  FFT cache size ............................    16
 getmpw: optimal value of mpw= 315
 memorf : analysis of memory needs
================================================================================
 Values of the parameters that define the memory need for DATASET  5 (RF).
     intxc =       0      iscf =       7    lmnmax =       3     lnmax =       3
     mgfft =      60  mpssoang =       2    mqgrid =    3001     natom =       2
  nloc_mem =       1    nspden =       1   nspinor =       1    nsppol =       1
      nsym =       8    n1xccc =       0    ntypat =       1    occopt =       1
   xclevel =       2
-    mband =           1        mffmem =           1         mkmem =           6
-   mkqmem =           6        mk1mem =           6           mpw =        2952
      nfft =       57600          nkpt =           6
================================================================================
P This job should need less than                      17.711 Mbytes of memory.
  Rough estimation (10% accuracy) of disk space for files :
_ WF disk file :      0.272 Mbytes ; DEN or POT disk file :      0.441 Mbytes.
================================================================================

 Biggest array : f_fftgr(disk), with      0.8809 MBytes.
 memana : allocated an array of      0.881 Mbytes, for testing purposes.
 memana: allocated      17.711Mbytes, for testing purposes. 
 The job will continue.

 DATASET    6 : space group P4/m m m (#123); Bravais tP (primitive tetrag.)

 getdim_nloc : deduce lmnmax  =   5, lnmax  =   3,
                      lmnmaxso=   5, lnmaxso=   3.
 For input ecut=  3.810104E+00 best grid ngfft=      10      36      36
       max ecut=  4.286623E+00

 ==== FFT mesh ====
  FFT mesh divisions ........................    10   36   36
  Augmented FFT divisions ...................    11   37   36
  FFT algorithm .............................   101
  FFT cache size ............................    16
 getmpw: optimal value of mpw= 315
 memorf : analysis of memory needs
================================================================================
 Values of the parameters that define the memory need for DATASET  6 (RF).
     intxc =       0      iscf =       7    lmnmax =       3     lnmax =       3
     mgfft =      60  mpssoang =       2    mqgrid =    3001     natom =       2
  nloc_mem =       1    nspden =       1   nspinor =       1    nsppol =       1
      nsym =       8    n1xccc =       0    ntypat =       1    occopt =       1
   xclevel =       2
-    mband =           1        mffmem =           1         mkmem =           6
-   mkqmem =           6        mk1mem =           6           mpw =        2952
      nfft =       57600          nkpt =           6
================================================================================
P This job should need less than                      17.711 Mbytes of memory.
  Rough estimation (10% accuracy) of disk space for files :
_ WF disk file :      0.272 Mbytes ; DEN or POT disk file :      0.441 Mbytes.
================================================================================

 Biggest array : f_fftgr(disk), with      0.8809 MBytes.
 memana : allocated an array of      0.881 Mbytes, for testing purposes.
 memana: allocated      17.711Mbytes, for testing purposes. 
 The job will continue.

 DATASET    7 : space group P4/m m m (#123); Bravais tP (primitive tetrag.)

 getdim_nloc : deduce lmnmax  =   5, lnmax  =   3,
                      lmnmaxso=   5, lnmaxso=   3.
 For input ecut=  3.810104E+00 best grid ngfft=      10      36      36
       max ecut=  4.286623E+00

 ==== FFT mesh ====
  FFT mesh divisions ........................    10   36   36
  Augmented FFT divisions ...................    11   37   36
  FFT algorithm .............................   101
  FFT cache size ............................    16
 getmpw: optimal value of mpw= 315
 memorf : analysis of memory needs
================================================================================
 Values of the parameters that define the memory need for DATASET  7 (RF).
     intxc =       0      iscf =       7    lmnmax =       3     lnmax =       3
     mgfft =      60  mpssoang =       2    mqgrid =    3001     natom =       2
  nloc_mem =       1    nspden =       1   nspinor =       1    nsppol =       1
      nsym =       8    n1xccc =       0    ntypat =       1    occopt =       1
   xclevel =       2
-    mband =           1        mffmem =           1         mkmem =           6
-   mkqmem =           6        mk1mem =           6           mpw =        2952
      nfft =       57600          nkpt =           6
================================================================================
P This job should need less than                      17.711 Mbytes of memory.
  Rough estimation (10% accuracy) of disk space for files :
_ WF disk file :      0.272 Mbytes ; DEN or POT disk file :      0.441 Mbytes.
================================================================================

 Biggest array : f_fftgr(disk), with      0.8809 MBytes.
 memana : allocated an array of      0.881 Mbytes, for testing purposes.
 memana: allocated      17.711Mbytes, for testing purposes. 
 The job will continue.
--------------------------------------------------------------------------------
------------- Echo of variables that govern the present computation ------------
--------------------------------------------------------------------------------
-
- outvars: echo of selected default values                                      
-   iomode0 =  0 , fftalg0 =112 , wfoptalg0 =  0
-
- outvars: echo of global parameters not present in the input file              
-  max_nthreads =    1
-
 -outvars: echo values of preprocessed input variables --------
 
 These variables are accessible in NetCDF format (io_dir/01_hchain_o_OUT.nc)

-          iomode           3
            acell      5.1778500000E+00  1.0000000000E+01  1.0000000000E+01 Bohr
              amu      1.00794000E+00
           diemac      4.50000000E+00
             ecut      1.00000000E+01 Hartree
-          fftalg         112
           getddk1          0
           getddk2          0
           getddk3          0
           getddk4          3
           getddk5          0
           getddk6          0
           getddk7          0
           getden1          0
           getden2          1
           getden3          0
           getden4          0
           getden5          0
           getden6          0
           getden7          0
           getwfk1          0
           getwfk2          0
           getwfk3          1
           getwfk4          1
           getwfk5          1
           getwfk6          1
           getwfk7          1
           iprcel          21
             iscf1          7
             iscf2         -2
             iscf3         -3
             iscf4          7
             iscf5          7
             iscf6          7
             iscf7          7
           istwfk1       2    0    0    3
           istwfk2       1    0    0    1
           istwfk3       1    0    0    1    0    0
           istwfk4       1    0    0    1    0    0
           istwfk5       1    0    0    1    0    0
           istwfk6       1    0    0    1    0    0
           istwfk7       1    0    0    1    0    0
              ixc          11
           jdtset        1    2    3    4    5    6    7
              kpt1     0.00000000E+00  0.00000000E+00  0.00000000E+00
                       1.66666667E-01  0.00000000E+00  0.00000000E+00
                       3.33333333E-01  0.00000000E+00  0.00000000E+00
                       5.00000000E-01  0.00000000E+00  0.00000000E+00
              kpt2     0.00000000E+00  0.00000000E+00  0.00000000E+00
                       1.66666667E-01  0.00000000E+00  0.00000000E+00
                       3.33333333E-01  0.00000000E+00  0.00000000E+00
                       5.00000000E-01  0.00000000E+00  0.00000000E+00
              kpt3     0.00000000E+00  0.00000000E+00  0.00000000E+00
                       1.66666667E-01  0.00000000E+00  0.00000000E+00
                       3.33333333E-01  0.00000000E+00  0.00000000E+00
                       5.00000000E-01  0.00000000E+00  0.00000000E+00
                      -3.33333333E-01  0.00000000E+00  0.00000000E+00
                      -1.66666667E-01  0.00000000E+00  0.00000000E+00
              kpt4     0.00000000E+00  0.00000000E+00  0.00000000E+00
                       1.66666667E-01  0.00000000E+00  0.00000000E+00
                       3.33333333E-01  0.00000000E+00  0.00000000E+00
                       5.00000000E-01  0.00000000E+00  0.00000000E+00
                      -3.33333333E-01  0.00000000E+00  0.00000000E+00
                      -1.66666667E-01  0.00000000E+00  0.00000000E+00
              kpt5     0.00000000E+00  0.00000000E+00  0.00000000E+00
                       1.66666667E-01  0.00000000E+00  0.00000000E+00
                       3.33333333E-01  0.00000000E+00  0.00000000E+00
                       5.00000000E-01  0.00000000E+00  0.00000000E+00
                      -3.33333333E-01  0.00000000E+00  0.00000000E+00
                      -1.66666667E-01  0.00000000E+00  0.00000000E+00
              kpt6     0.00000000E+00  0.00000000E+00  0.00000000E+00
                       1.66666667E-01  0.00000000E+00  0.00000000E+00
                       3.33333333E-01  0.00000000E+00  0.00000000E+00
                       5.00000000E-01  0.00000000E+00  0.00000000E+00
                      -3.33333333E-01  0.00000000E+00  0.00000000E+00
                      -1.66666667E-01  0.00000000E+00  0.00000000E+00
              kpt7     0.00000000E+00  0.00000000E+00  0.00000000E+00
                       1.66666667E-01  0.00000000E+00  0.00000000E+00
                       3.33333333E-01  0.00000000E+00  0.00000000E+00
                       5.00000000E-01  0.00000000E+00  0.00000000E+00
                      -3.33333333E-01  0.00000000E+00  0.00000000E+00
                      -1.66666667E-01  0.00000000E+00  0.00000000E+00
           kptopt1          1
           kptopt2          1
           kptopt3          3
           kptopt4          3
           kptopt5          3
           kptopt6          3
           kptopt7          3
         kptrlatt        6    0    0      0    1    0      0    0    1
          kptrlen      3.10671000E+01
P           mkmem1          4
P           mkmem2          4
P           mkmem3          6
P           mkmem4          6
P           mkmem5          6
P           mkmem6          6
P           mkmem7          6
P          mkqmem1          4
P          mkqmem2          4
P          mkqmem3          6
P          mkqmem4          6
P          mkqmem5          6
P          mkqmem6          6
P          mkqmem7          6
P          mk1mem1          4
P          mk1mem2          4
P          mk1mem3          6
P          mk1mem4          6
P          mk1mem5          6
P          mk1mem6          6
P          mk1mem7          6
            natom           2
            nband1          2
            nband2         10
            nband3          1
            nband4          1
            nband5          1
            nband6          1
            nband7          1
           nbdbuf           2
           ndtset           7
            ngfft          16      60      60
             nkpt1          4
             nkpt2          4
             nkpt3          6
             nkpt4          6
             nkpt5          6
             nkpt6          6
             nkpt7          6
             nqpt1          0
             nqpt2          0
             nqpt3          1
             nqpt4          1
             nqpt5          1
             nqpt6          1
             nqpt7          1
            nstep1        100
            nstep2        100
            nstep3        200
            nstep4        200
            nstep5        200
            nstep6        200
            nstep7        200
             nsym           8
           ntypat           1
              occ1     2.000000  0.000000
              occ3     2.000000
              occ4     2.000000
              occ5     2.000000
              occ6     2.000000
              occ7     2.000000
        optdriver1          0
        optdriver2          0
        optdriver3          1
        optdriver4          1
        optdriver5          1
        optdriver6          1
        optdriver7          1
           prtpot1          0
           prtpot2          0
           prtpot3          1
           prtpot4          1
           prtpot5          1
           prtpot6          1
           prtpot7          1
          prtkbff1          0
          prtkbff2          1
          prtkbff3          0
          prtkbff4          0
          prtkbff5          0
          prtkbff6          0
          prtkbff7          0
              qpt1     0.00000000E+00  0.00000000E+00  0.00000000E+00
              qpt2     0.00000000E+00  0.00000000E+00  0.00000000E+00
              qpt3     0.00000000E+00  0.00000000E+00  0.00000000E+00
              qpt4     0.00000000E+00  0.00000000E+00  0.00000000E+00
              qpt5     1.66666667E-01  0.00000000E+00  0.00000000E+00
              qpt6     3.33333333E-01  0.00000000E+00  0.00000000E+00
              qpt7     5.00000000E-01  0.00000000E+00  0.00000000E+00
          rfatpol           1       2
            rfdir           1       1       1
           rfelfd1          0
           rfelfd2          0
           rfelfd3          2
           rfelfd4          3
           rfelfd5          0
           rfelfd6          0
           rfelfd7          0
           rfphon1          0
           rfphon2          0
           rfphon3          0
           rfphon4          1
           rfphon5          1
           rfphon6          1
           rfphon7          1
            rprim      1.0000000000E+00  0.0000000000E+00  0.0000000000E+00
                       0.0000000000E+00  1.9313000000E+00  0.0000000000E+00
                       0.0000000000E+00  0.0000000000E+00  1.9313000000E+00
          spgroup         123
        symmorphi           0
           symrel      1  0  0   0  1  0   0  0  1       1  0  0   0  1  0   0  0 -1
                       1  0  0   0 -1  0   0  0 -1       1  0  0   0 -1  0   0  0  1
                       1  0  0   0  0  1   0  1  0       1  0  0   0  0  1   0 -1  0
                       1  0  0   0  0 -1   0 -1  0       1  0  0   0  0 -1   0  1  0
           toldfe1     1.00000000E-06 Hartree
           toldfe2     0.00000000E+00 Hartree
           toldfe3     0.00000000E+00 Hartree
           toldfe4     0.00000000E+00 Hartree
           toldfe5     0.00000000E+00 Hartree
           toldfe6     0.00000000E+00 Hartree
           toldfe7     0.00000000E+00 Hartree
           tolwfr1     0.00000000E+00
           tolwfr2     1.00000000E-12
           tolwfr3     1.00000000E-12
           tolwfr4     1.00000000E-12
           tolwfr5     1.00000000E-12
           tolwfr6     1.00000000E-12
           tolwfr7     1.00000000E-12
            typat      1  1
              wtk1       0.16667    0.33333    0.33333    0.16667
              wtk2       0.16667    0.33333    0.33333    0.16667
              wtk3       0.16667    0.16667    0.16667    0.16667    0.16667    0.16667
              wtk4       0.16667    0.16667    0.16667    0.16667    0.16667    0.16667
              wtk5       0.16667    0.16667    0.16667    0.16667    0.16667    0.16667
              wtk6       0.16667    0.16667    0.16667    0.16667    0.16667    0.16667
              wtk7       0.16667    0.16667    0.16667    0.16667    0.16667    0.16667
           xangst      0.0000000000E+00  0.0000000000E+00  0.0000000000E+00
                       7.4000007658E-01  0.0000000000E+00  0.0000000000E+00
            xcart      0.0000000000E+00  0.0000000000E+00  0.0000000000E+00
                       1.3983974831E+00  0.0000000000E+00  0.0000000000E+00
             xred      0.0000000000E+00  0.0000000000E+00  0.0000000000E+00
                       2.7007300000E-01  0.0000000000E+00  0.0000000000E+00
            znucl        1.00000

================================================================================

 chkinp: Checking input parameters for consistency, jdtset=   1.

 chkinp: Checking input parameters for consistency, jdtset=   2.

 chkinp: Checking input parameters for consistency, jdtset=   3.

 chkinp: Checking input parameters for consistency, jdtset=   4.

 chkinp: Checking input parameters for consistency, jdtset=   5.

 chkinp: Checking input parameters for consistency, jdtset=   6.

 chkinp: Checking input parameters for consistency, jdtset=   7.
 DATA TYPE INFORMATION: 
 REAL:      Data type name: REAL(DP) 
            Kind value:      8
            Precision:      15
            Smallest nonnegligible quantity relative to 1: 0.22204460E-015
            Smallest positive number:                      0.22250739E-307
            Largest representable number:                  0.17976931E+309
 INTEGER:   Data type name: INTEGER(default) 
            Kind value: 4
            Bit size:   32
            Largest representable number: 2147483647
 LOGICAL:   Data type name: LOGICAL 
            Kind value: 4
 CHARACTER: Data type name: CHARACTER             Kind value: 1

  ==== OpenMP parallelism is ON ====
- Max_threads:       1
- Num_threads:       1
- Num_procs:         6
- Dynamic:           F
 
  ==== Using MPI-2 specifications ==== 
  MPI-IO support is ON
  xmpi_tag_ub ................    268435455
  xmpi_bsize_ch ..............            1
  xmpi_bsize_int .............            4
  xmpi_bsize_sp ..............            4
  xmpi_bsize_dp ..............            8
  xmpi_bsize_spc .............            8
  xmpi_bsize_dpc .............           16
  xmpio_bsize_frm ............            4
  xmpi_address_kind ..........            8
  xmpi_offset_kind ...........            8
  MPI_WTICK ..................    1.0000000000000001E-009

================================================================================
== DATASET  1 ==================================================================
-   mpi_nproc: 1, omp_nthreads: 1 (-1 if OMP is not activated)


--- !COMMENT
src_file: m_xgScalapack.F90
src_line: 236
message: |
    xgScalapack in auto mode
...


 getdim_nloc : deduce lmnmax  =   5, lnmax  =   3,
                      lmnmaxso=   5, lnmaxso=   3.
 Exchange-correlation functional for the present dataset will be:
  GGA: Perdew-Burke-Ernzerhof functional - ixc=11
 Citation for XC functional:
  J.P.Perdew, K.Burke, M.Ernzerhof, PRL 77, 3865 (1996)

 Unit cell volume ucvol=  1.9312965E+03 bohr^3
 Angles (23,13,12)=  9.00000000E+01  9.00000000E+01  9.00000000E+01 degrees

 getcut: wavevector=  0.0000  0.0000  0.0000  ngfft=  16  60  60
         ecut(hartree)=     10.000   => boxcut(ratio)=   2.17073
- pspini: atom type   1  psp file is pseudo/H.psp8
- pspatm: opening atomic psp file    pseudo/H.psp8
- H     ONCVPSP-3.2.3.1  r_core=   1.00957   0.70586
-  1.00000   1.00000    170501                znucl, zion, pspdat
    8   11    1    4       300   0.00000      pspcod,pspxc,lmax,lloc,mmax,r2well
    2.99000000000000    0.00000000000000    0.00000000000000   rchrg,fchrg,qchrg
     nproj     2     1
     extension_switch     1
  valence charge integrates to:   0.90326502730061875     
  pspatm : epsatm=    0.36235122
         --- l  ekb(1:nproj) -->
             0   -1.701123   -0.534484
             1   -0.503321
 pspatm: atomic psp has been read  and splines computed

   1.44940486E+00                                ecore*ucvol(ha*bohr**3)
 ==== Info on pseudopotentials ====
  Norm-conserving pseudopotentials
  Number of pseudopotentials ..    1
  Number of types of atoms   ..    1
  Scalar calculation (no spin-orbit term)
  Nonlocal part applied using Legendre polynomials
  Max number of non-local projectors over l and type   2
  Highest angular momentum +1 .......   2
  Max number of (l,n)   components ..   3
  Max number of (l,m,n) components ..   3

 Info on the Q-grid used for form factors in spline form: 
   Number of q-points for radial functions ffspl ..   3001
   Number of q-points for vlspl ...................   3001
   vloc is computed in Reciprocal Space
   model core charge treated in real-space

  XC functional for type 1 is 11
  Pseudo valence available: yes

 symatm: atom number 1 is reached starting at atom
   1  1  1  1  1  1  1  1
 symatm: atom number 2 is reached starting at atom
   2  2  2  2  2  2  2  2
 wfconv:     2 bands initialized randomly with npw=  1464, for ikpt=     1
 wfconv:     2 bands initialized randomly with npw=  2911, for ikpt=     2
 wfconv:     2 bands initialized randomly with npw=  2932, for ikpt=     3
 wfconv:     2 bands initialized randomly with npw=  1476, for ikpt=     4
_setup2: Arith. and geom. avg. npw (full set) are    2927.500    2927.466
 initro: for itypat=  1, take pseudo charge density from pp file

================================================================================
 For input ecut=  3.810104E+00 best grid ngfft=      10      36      36
       max ecut=  4.286623E+00

 ==== FFT mesh ====
  FFT mesh divisions ........................    10   36   36
  Augmented FFT divisions ...................    11   37   36
  FFT algorithm .............................   100
  FFT cache size ............................    16
 getmpw: optimal value of mpw= 315
 symatm: atom number 1 is reached starting at atom
   1  1  1  1  1  1  1  1
 symatm: atom number 2 is reached starting at atom
   2  2  2  2  2  2  2  2

 getcut: wavevector=  0.0000  0.0000  0.0000  ngfft=  16  60  60
         ecut(hartree)=     10.000   => boxcut(ratio)=   2.17073

 1/G**2 cut-off applied in the following step : cutoff-mode = CRYSTAL

 1/G**2 cut-off applied in the following step : cutoff-mode = CRYSTAL

 1/G**2 cut-off applied in the following step : cutoff-mode = CRYSTAL

--- !WARNING
src_file: m_drivexc.F90
src_line: 711
message: |
    Density went too small (lower than xc_denpos) at 18837 points
    and was set to xc_denpos =   1.00E-14. Lowest was  -0.28E-04.
    This might be due to (1) too low boxcut or (2) too low ecut for
     pseudopotential core charge, or (3) too low ecut for estimated initial density.
     Possible workarounds : increase ecut, or define the input variable densty,
     with a value larger than the guess for the decay length, or initialize your,
     density with a preliminary LDA or GGA-PBE if you are using a more exotic xc functional.
...


 ITER STEP NUMBER     1
 Max number of non-self-consistent loops: 2
 Total charge density [el/Bohr^3]
)     Maximum=    3.1781E-01  at reduced coord.    0.1250    0.0000    0.0000
)     Minimum=    3.5191E-08  at reduced coord.    0.0625    0.2667    0.2500
   Integrated=    2.0000E+00

 1/G**2 cut-off applied in the following step : cutoff-mode = CRYSTAL
 ETOT  1  -1.1377007357014    -1.138E+00 8.786E-04 4.288E+01
 scprqt: <Vxc>= -3.3836434E-02 hartree

 dielmt : 15 largest eigenvalues of the hermitian RPA dielectric matrix
  1-5  : 1.54723E+00 1.37419E+00 1.37419E+00 1.35075E+00 1.13647E+00
  6-10 : 1.09663E+00 1.09663E+00 1.08463E+00 1.08409E+00 1.05117E+00
  11-15: 1.05117E+00 1.03200E+00 1.03200E+00 1.02465E+00 1.02426E+00

 dielmt : 5 smallest eigenvalues of the hermitian RPA dielectric matrix
  1-5  : 1.00000E+00 1.00000E+00 1.00000E+00 1.00000E+00 1.00000E+00

 Simple mixing update:
  residual square of the potential:    38.706606218473951
{SCF_istep: 1 , Vnl|psi>: 78 , wall_time: '  0.36 [s] '} <<< TIME

 ITER STEP NUMBER     2
 Max number of non-self-consistent loops: 2
 Total charge density [el/Bohr^3]
)     Maximum=    2.8069E-01  at reduced coord.    0.1250    0.0000    0.0000
)     Minimum=    0.0000E+00  at reduced coord.    0.1250    0.4167    0.0167
   Integrated=    2.0000E+00
 ETOT  2  -1.1435982166786    -5.897E-03 8.488E-08 4.892E+00
 scprqt: <Vxc>= -3.2935735E-02 hartree

 Pulay update with  1 previous iterations:
 mixing of old trial potential: alpha(m:m-4)=  0.790      0.210
{SCF_istep: 2 , Vnl|psi>: 76 , wall_time: '  0.09 [s] '} <<< TIME

 ITER STEP NUMBER     3
 Total charge density [el/Bohr^3]
)     Maximum=    2.8266E-01  at reduced coord.    0.1250    0.0000    0.0000
)     Minimum=    0.0000E+00  at reduced coord.    0.1250    0.4167    0.0167
   Integrated=    2.0000E+00
 ETOT  3  -1.1436123924071    -1.418E-05 3.110E-07 2.576E-01
 scprqt: <Vxc>= -3.2810598E-02 hartree

 Pulay update with  2 previous iterations:
 mixing of old trial potential: alpha(m:m-4)=   1.18     -0.188      0.924E-02
{SCF_istep: 3 , Vnl|psi>: 36 , wall_time: '  0.05 [s] '} <<< TIME

 ITER STEP NUMBER     4
 Total charge density [el/Bohr^3]
)     Maximum=    2.8279E-01  at reduced coord.    0.1250    0.0000    0.0000
)     Minimum=    0.0000E+00  at reduced coord.    0.1250    0.4167    0.0167
   Integrated=    2.0000E+00
 ETOT  4  -1.1436128129943    -4.206E-07 8.097E-09 3.601E-03
 scprqt: <Vxc>= -3.2799236E-02 hartree

 Pulay update with  3 previous iterations:
 mixing of old trial potential: alpha(m:m-4)=  0.895      0.142     -0.368E-01  0.232E-03
{SCF_istep: 4 , Vnl|psi>: 36 , wall_time: '  0.05 [s] '} <<< TIME

 ITER STEP NUMBER     5
 Total charge density [el/Bohr^3]
)     Maximum=    2.8279E-01  at reduced coord.    0.1250    0.0000    0.0000
)     Minimum=    0.0000E+00  at reduced coord.    0.1250    0.4167    0.0167
   Integrated=    2.0000E+00
 ETOT  5  -1.1436128230902    -1.010E-08 3.129E-10 8.626E-05
 scprqt: <Vxc>= -3.2798805E-02 hartree

 At SCF step    5, etot is converged : 
  for the second time, diff in etot=  1.010E-08 < toldfe=  1.000E-06
 
 -------------------------------------------------------------------------------------------------
 Ekinetic   = :     1.066927E+00 Ha ,    2.903257E+01 eV
 Evext_l    = :    -3.264832E+00 Ha ,   -8.884059E+01 eV
 Evext_nl   = :    -1.729141E-01 Ha ,   -4.705232E+00 eV
 Epsp_core  = :     7.504828E-04 Ha ,    2.042168E-02 eV
 Ehartree   = :     1.244268E+00 Ha ,    3.385826E+01 eV
 Exc_ks     = :    -6.840416E-01 Ha ,   -1.861372E+01 eV
 Enn        = :     6.662284E-01 Ha ,    1.812900E+01 eV
 -------------------------------------------------------------------------------------------------
 Etot       = :    -1.143613E+00 Ha ,   -3.111929E+01 eV
 -------------------------------------------------------------------------------------------------

 Cartesian components of stress tensor (hartree/bohr^3)
  sigma(1 1)= -1.16988508E-08  sigma(3 2)=  0.00000000E+00
  sigma(2 2)=  1.51756241E-05  sigma(3 1)=  0.00000000E+00
  sigma(3 3)=  1.51756241E-05  sigma(2 1)=  0.00000000E+00


 fftdatar_write: About to write data to: io_dir/01_hchain_o_DS1_DEN with iomode: IO_MODE_ETSF
- Creating HDf5 file with MPI-IO support: io_dir/01_hchain_o_DS1_DEN.nc
- Opening HDf5 file with MPI-IO support: io_dir/01_hchain_o_DS1_DEN.nc
 IO operation completed. cpu:  0.06 [s] , wall:  0.48 [s] <<< TIME
- Creating HDf5 file with MPI-IO support: io_dir/01_hchain_o_DS1_GSR.nc
 Integrated electronic density in atomic spheres:
 ------------------------------------------------
 Atom  Sphere_radius  Integrated_density
    1        2.00000          1.50665679
    2        2.00000          1.48224769
================================================================================

 ----iterations are completed or convergence reached----


 === Gap info ===
  >>>> For spin  1
   Minimum direct gap =   9.0698 [eV], located at k-point      :   0.5000  0.0000  0.0000
   Fundamental gap    =   9.0698 [eV], Top of valence bands at :   0.5000  0.0000  0.0000
                                       Bottom of conduction at :   0.5000  0.0000  0.0000
 Mean square residual over all n,k,spin=   10.897E-11; max=  31.294E-11
   0.0000  0.0000  0.0000    1  1.17981E-10 kpt; spin; max resid(k); each band:
  5.75E-11 1.18E-10
   0.1667  0.0000  0.0000    1  1.20720E-10 kpt; spin; max resid(k); each band:
  6.34E-11 1.21E-10
   0.3333  0.0000  0.0000    1  7.99030E-10 kpt; spin; max resid(k); each band:
  3.13E-10 7.99E-10
   0.5000  0.0000  0.0000    1  7.89589E-12 kpt; spin; max resid(k); each band:
  2.04E-12 7.90E-12
in cg_ncwrite with path: io_dir/01_hchain_o_DS1_WFK.nc
same layout Writing WFK file: io_dir/01_hchain_o_DS1_WFK.nc, with iomode: IO_MODE_ETSF, single writer: F
Using collective IO for the CGs
 collective ncwrite completed. cpu:  0.06 [s] , wall:  0.28 [s] <<< TIME
 prteigrs : about to open file io_dir/01_hchain_o_DS1_EIG
 Fermi (or HOMO) energy (hartree) =  -0.34639   Average Vxc (hartree)=  -0.03280
 Eigenvalues (hartree) for nkpt=   4  k points:
 kpt#   1, nband=  2, wtk=  0.16667, kpt=  0.0000  0.0000  0.0000 (reduced coord)
  -0.41022   -0.00564
 kpt#   2, nband=  2, wtk=  0.33333, kpt=  0.1667  0.0000  0.0000 (reduced coord)
  -0.39737    0.01359
 kpt#   3, nband=  2, wtk=  0.33333, kpt=  0.3333  0.0000  0.0000 (reduced coord)
  -0.36616    0.03192
 kpt#   4, nband=  2, wtk=  0.16667, kpt=  0.5000  0.0000  0.0000 (reduced coord)
  -0.34639   -0.01308
 Total charge density [el/Bohr^3]
)     Maximum=    2.8279E-01  at reduced coord.    0.1250    0.0000    0.0000
)Next maximum=    2.7701E-01  at reduced coord.    0.1875    0.0000    0.0000
)     Minimum=    0.0000E+00  at reduced coord.    0.1250    0.4167    0.0167
)Next minimum=    0.0000E+00  at reduced coord.    0.1250    0.5833    0.0167
   Integrated=    2.0000E+00

 Cartesian components of stress tensor (hartree/bohr^3)
  sigma(1 1)= -1.16988508E-08  sigma(3 2)=  0.00000000E+00
  sigma(2 2)=  1.51756241E-05  sigma(3 1)=  0.00000000E+00
  sigma(3 3)=  1.51756241E-05  sigma(2 1)=  0.00000000E+00

-Cartesian components of stress tensor (GPa)         [Pressure= -2.9754E-01 GPa]
- sigma(1 1)= -3.44192017E-04  sigma(3 2)=  0.00000000E+00
- sigma(2 2)=  4.46482200E-01  sigma(3 1)=  0.00000000E+00
- sigma(3 3)=  4.46482200E-01  sigma(2 1)=  0.00000000E+00

================================================================================
== DATASET  2 ==================================================================
-   mpi_nproc: 1, omp_nthreads: 1 (-1 if OMP is not activated)


--- !COMMENT
src_file: m_xgScalapack.F90
src_line: 236
message: |
    xgScalapack in auto mode
...

 mkfilename : getden/=0, take file _DEN from output of DATASET   1.


 getdim_nloc : deduce lmnmax  =   5, lnmax  =   3,
                      lmnmaxso=   5, lnmaxso=   3.
 Exchange-correlation functional for the present dataset will be:
  GGA: Perdew-Burke-Ernzerhof functional - ixc=11
 Citation for XC functional:
  J.P.Perdew, K.Burke, M.Ernzerhof, PRL 77, 3865 (1996)

 Unit cell volume ucvol=  1.9312965E+03 bohr^3
 Angles (23,13,12)=  9.00000000E+01  9.00000000E+01  9.00000000E+01 degrees

 getcut: wavevector=  0.0000  0.0000  0.0000  ngfft=  16  60  60
         ecut(hartree)=     10.000   => boxcut(ratio)=   2.17073
 symatm: atom number 1 is reached starting at atom
   1  1  1  1  1  1  1  1
 symatm: atom number 2 is reached starting at atom
   2  2  2  2  2  2  2  2
 wfconv:    10 bands initialized randomly with npw=  2927, for ikpt=     1
 wfconv:    10 bands initialized randomly with npw=  2911, for ikpt=     2
 wfconv:    10 bands initialized randomly with npw=  2932, for ikpt=     3
 wfconv:    10 bands initialized randomly with npw=  2952, for ikpt=     4
 About to read data(r) from: io_dir/01_hchain_o_DS1_DEN
- File: io_dir/01_hchain_o_DS1_DEN does not exist but found netcdf file with similar name.

================================================================================

          - hdr_check: checking restart file header for consistency -


          current calculation                           restart file
          -------------------                           ------------

  calculation expects a density             |  input file contains a density
. ABINIT  code version 9.7.4                |  ABINIT  code version 9.7.4
. date 20221213 bantot       40 natom    2  |  date 20221213 bantot        8 natom    2
  nkpt       4 nsym  8 ngfft  16,  60,  60  |  nkpt       4 nsym  8 ngfft  16,  60,  60
  ntypat  1 ecut_eff  10.0000000            |  ntypat  1 ecut_eff  10.0000000
  usepaw  0                                 |  usepaw  0
  usewvl  0                                 |  usewvl  0
  rprimd:                                   |  rprimd:
     5.1778500   0.0000000   0.0000000      |     5.1778500   0.0000000   0.0000000
     0.0000000  19.3130000   0.0000000      |     0.0000000  19.3130000   0.0000000
     0.0000000   0.0000000  19.3130000      |     0.0000000   0.0000000  19.3130000
  nband:                                    |  nband:
    10  10  10  10                          |     2   2   2   2
  symafm:                                   |  symafm:
    1  1  1  1  1  1  1  1                  |    1  1  1  1  1  1  1  1
  symrel:                                   |  symrel:
    1  0  0  0  1  0  0  0  1               |    1  0  0  0  1  0  0  0  1
    1  0  0  0  1  0  0  0 -1               |    1  0  0  0  1  0  0  0 -1
    1  0  0  0 -1  0  0  0 -1               |    1  0  0  0 -1  0  0  0 -1
    1  0  0  0 -1  0  0  0  1               |    1  0  0  0 -1  0  0  0  1
    1  0  0  0  0  1  0  1  0               |    1  0  0  0  0  1  0  1  0
    1  0  0  0  0  1  0 -1  0               |    1  0  0  0  0  1  0 -1  0
    1  0  0  0  0 -1  0 -1  0               |    1  0  0  0  0 -1  0 -1  0
    1  0  0  0  0 -1  0  1  0               |    1  0  0  0  0 -1  0  1  0
  typat:                                    |  typat:
    1  1                                    |    1  1
  so_psp  :                                 |  so_psp  :
    1                                       |    1
  istwfk:                                   |  istwfk:
    1  1  1  1                              |    2  1  1  3

--- !COMMENT
src_file: m_hdr.F90
src_line: 4434
message: |
    For k point number 1 input istwfk=1 not equal disk file istwfk=2
...


--- !COMMENT
src_file: m_hdr.F90
src_line: 4434
message: |
    For k point number 4 input istwfk=1 not equal disk file istwfk=3
...


--- !WARNING
src_file: m_hdr.F90
src_line: 4467
message: |
    input ival=0 not equal disk file ival=1
...

  kpt:                                      |  kpt:
     0.0000000   0.0000000   0.0000000      |     0.0000000   0.0000000   0.0000000
     0.1666667   0.0000000   0.0000000      |     0.1666667   0.0000000   0.0000000
     0.3333333   0.0000000   0.0000000      |     0.3333333   0.0000000   0.0000000
     0.5000000   0.0000000   0.0000000      |     0.5000000   0.0000000   0.0000000
  wtk:                                      |  wtk:
    0.167  0.333  0.333  0.167              |    0.167  0.333  0.333  0.167
  tnons:                                    |  tnons:
     0.0000000   0.0000000   0.0000000      |     0.0000000   0.0000000   0.0000000
     0.0000000   0.0000000   0.0000000      |     0.0000000   0.0000000   0.0000000
     0.0000000   0.0000000   0.0000000      |     0.0000000   0.0000000   0.0000000
     0.0000000   0.0000000   0.0000000      |     0.0000000   0.0000000   0.0000000
     0.0000000   0.0000000   0.0000000      |     0.0000000   0.0000000   0.0000000
     0.0000000   0.0000000   0.0000000      |     0.0000000   0.0000000   0.0000000
     0.0000000   0.0000000   0.0000000      |     0.0000000   0.0000000   0.0000000
     0.0000000   0.0000000   0.0000000      |     0.0000000   0.0000000   0.0000000
   znucl:                                   |   znucl:
    1.00                                    |        1.00
  pseudopotential atom type  1:             |  pseudopotential atom type  1:
  pspso   0 pspxc  11                       |  pspso   0 pspxc  11
  pspdat   170501 pspcod    8 zion   1.0    |  pspdat   170501 pspcod    8 zion   1.0
  xred:                                     |  xred:
     0.0000000   0.0000000   0.0000000      |     0.0000000   0.0000000   0.0000000
     0.2700730   0.0000000   0.0000000      |     0.2700730   0.0000000   0.0000000
 hdr_check:  Density/Potential file is OK for restart of calculation
================================================================================
 read_rhor completed. cpu:  0.01 [s] , wall:  0.01 [s] <<< TIME

================================================================================

 getcut: wavevector=  0.0000  0.0000  0.0000  ngfft=  16  60  60
         ecut(hartree)=     10.000   => boxcut(ratio)=   2.17073
 Max number of non-self-consistent loops: 100
 k-point: [ 1 / 4 ], spin: 1
   Max resid = 8.72454E-02  (exclude nbdbuf bands). One NSCF iteration cpu-time:  0.05 [s] , wall-time:  0.05 [s]
   Max resid = 6.22641E-04  (exclude nbdbuf bands). One NSCF iteration cpu-time:  0.04 [s] , wall-time:  0.04 [s]
   Max resid = 2.44349E-06  (exclude nbdbuf bands). One NSCF iteration cpu-time:  0.05 [s] , wall-time:  0.05 [s]
   Printing residuals every mod(20) iterations...
   NSCF loop completed after 5 iterations
 
 -------------------------------------------------------------------------------------------------
 Ekinetic   = :     0.000000E+00 Ha ,    0.000000E+00 eV
 Evext_l    = :     0.000000E+00 Ha ,    0.000000E+00 eV
 Evext_nl   = :     0.000000E+00 Ha ,    0.000000E+00 eV
 Epsp_core  = :     7.504828E-04 Ha ,    2.042168E-02 eV
 Ehartree   = :     0.000000E+00 Ha ,    0.000000E+00 eV
 Exc_ks     = :    -6.840416E-01 Ha ,   -1.861372E+01 eV
 Enn        = :     6.662284E-01 Ha ,    1.812900E+01 eV
 -------------------------------------------------------------------------------------------------
 Etot       = :    -1.706273E-02 Ha ,   -4.643006E-01 eV
 -------------------------------------------------------------------------------------------------

 fftdatar_write: About to write data to: io_dir/01_hchain_o_DS2_DEN with iomode: IO_MODE_ETSF
- Creating HDf5 file with MPI-IO support: io_dir/01_hchain_o_DS2_DEN.nc
- Opening HDf5 file with MPI-IO support: io_dir/01_hchain_o_DS2_DEN.nc
 IO operation completed. cpu:  0.04 [s] , wall:  0.46 [s] <<< TIME
- Creating HDf5 file with MPI-IO support: io_dir/01_hchain_o_DS2_GSR.nc
 Integrated electronic density in atomic spheres:
 ------------------------------------------------
 Atom  Sphere_radius  Integrated_density
    1        2.00000          1.50665679
    2        2.00000          1.48224769
================================================================================

 ----iterations are completed or convergence reached----


 === Gap info ===
  >>>> For spin  1
   Minimum direct gap =   9.0690 [eV], located at k-point      :   0.5000  0.0000  0.0000
   Fundamental gap    =   9.0690 [eV], Top of valence bands at :   0.5000  0.0000  0.0000
                                       Bottom of conduction at :   0.5000  0.0000  0.0000
 Mean square residual over all n,k,spin=   43.520E-14; max=  97.609E-14
   0.0000  0.0000  0.0000    1  1.07997E-12 kpt; spin; max resid(k); each band:
  4.88E-13 2.67E-13 3.99E-13 2.34E-14 8.68E-13 2.38E-14 4.84E-13 8.33E-14
  1.10E-13 1.08E-12
   0.1667  0.0000  0.0000    1  8.43070E-12 kpt; spin; max resid(k); each band:
  8.34E-13 5.39E-13 1.96E-13 6.87E-13 1.29E-13 9.52E-14 2.14E-13 2.92E-13
  4.36E-13 8.43E-12
   0.3333  0.0000  0.0000    1  9.76086E-13 kpt; spin; max resid(k); each band:
  4.08E-13 9.66E-13 9.76E-13 2.55E-14 8.93E-13 4.61E-13 1.32E-13 1.56E-13
  3.90E-13 5.23E-13
   0.5000  0.0000  0.0000    1  3.33041E-08 kpt; spin; max resid(k); each band:
  8.18E-13 7.38E-13 4.55E-13 2.33E-13 5.30E-13 9.41E-13 4.26E-13 1.44E-13
  3.33E-09 3.33E-08
in cg_ncwrite with path: io_dir/01_hchain_o_DS2_WFK.nc
same layout Writing WFK file: io_dir/01_hchain_o_DS2_WFK.nc, with iomode: IO_MODE_ETSF, single writer: F
Using collective IO for the CGs
 collective ncwrite completed. cpu:  0.08 [s] , wall:  0.35 [s] <<< TIME
Writing KB form factors to: io_dir/01_hchain_o_DS2_WFK.nc
- Opening HDf5 file with MPI-IO support: io_dir/01_hchain_o_DS2_WFK.nc
 prteigrs : about to open file io_dir/01_hchain_o_DS2_EIG
 Eigenvalues (hartree) for nkpt=   4  k points:
 kpt#   1, nband= 10, wtk=  0.16667, kpt=  0.0000  0.0000  0.0000 (reduced coord)
  -0.41022   -0.00564    0.01133    0.01133    0.04471    0.05787    0.07995    0.07995
   0.08842    0.12060
 kpt#   2, nband= 10, wtk=  0.33333, kpt=  0.1667  0.0000  0.0000 (reduced coord)
  -0.39737    0.01359    0.03173    0.03173    0.06516    0.07489    0.10037    0.10037
   0.10887    0.13312
 kpt#   3, nband= 10, wtk=  0.33333, kpt=  0.3333  0.0000  0.0000 (reduced coord)
  -0.36616    0.03190    0.08634    0.09281    0.09281    0.12651    0.14949    0.16158
   0.16158    0.17022
 kpt#   4, nband= 10, wtk=  0.16667, kpt=  0.5000  0.0000  0.0000 (reduced coord)
  -0.34638   -0.01310    0.17634    0.18609    0.18609    0.18623    0.20333    0.20333
   0.22827    0.22925
 Total charge density [el/Bohr^3]
)     Maximum=    2.8279E-01  at reduced coord.    0.1250    0.0000    0.0000
)Next maximum=    2.7701E-01  at reduced coord.    0.1875    0.0000    0.0000
)     Minimum=    0.0000E+00  at reduced coord.    0.1250    0.4167    0.0167
)Next minimum=    0.0000E+00  at reduced coord.    0.1250    0.5833    0.0167
   Integrated=    2.0000E+00

================================================================================
== DATASET  3 ==================================================================
-   mpi_nproc: 1, omp_nthreads: 1 (-1 if OMP is not activated)


--- !COMMENT
src_file: m_xgScalapack.F90
src_line: 236
message: |
    xgScalapack in auto mode
...

 mkfilename : getwfk/=0, take file _WFK from output of DATASET   1.


 getdim_nloc : deduce lmnmax  =   5, lnmax  =   3,
                      lmnmaxso=   5, lnmaxso=   3.
 Exchange-correlation functional for the present dataset will be:
  GGA: Perdew-Burke-Ernzerhof functional - ixc=11
 Citation for XC functional:
  J.P.Perdew, K.Burke, M.Ernzerhof, PRL 77, 3865 (1996)

 Unit cell volume ucvol=  1.9312965E+03 bohr^3
 Angles (23,13,12)=  9.00000000E+01  9.00000000E+01  9.00000000E+01 degrees
 setup1 : take into account q-point for computing boxcut.

 getcut: wavevector=  0.0000  0.0000  0.0000  ngfft=  16  60  60
         ecut(hartree)=     10.000   => boxcut(ratio)=   2.17073
- File: io_dir/01_hchain_o_DS1_WFK does not exist but found netcdf file with similar name.

 respfn : eigen0 array
 symatm: atom number 1 is reached starting at atom
   1  1  1  1  1  1  1  1
 symatm: atom number 2 is reached starting at atom
   2  2  2  2  2  2  2  2

 getcut: wavevector=  0.0000  0.0000  0.0000  ngfft=  16  60  60
         ecut(hartree)=     10.000   => boxcut(ratio)=   2.17073
 mkrho: echo density (plane-wave part only)
 Total charge density [el/Bohr^3]
)     Maximum=    2.8279E-01  at reduced coord.    0.1250    0.0000    0.0000
)     Minimum=    0.0000E+00  at reduced coord.    0.1250    0.4167    0.0167
   Integrated=    2.0000E+00

 ==>  initialize data related to q vector <== 

 respfn : the norm of the phonon wavelength (as input) was small (<1.d-7).
  q has been set exactly to (0 0 0)
 The list of irreducible perturbations for this q vector is:
    1)    idir= 1    ipert=   3
    2)    idir= 2    ipert=   3
    3)    idir= 3    ipert=   3

================================================================================
 Real(R)+Recip(G) space primitive vectors, cartesian coordinates (Bohr,Bohr^-1):
 R(1)=  5.1778500  0.0000000  0.0000000  G(1)=  0.1931304  0.0000000  0.0000000
 R(2)=  0.0000000 19.3130000  0.0000000  G(2)=  0.0000000  0.0517786  0.0000000
 R(3)=  0.0000000  0.0000000 19.3130000  G(3)=  0.0000000  0.0000000  0.0517786
 Unit cell volume ucvol=  1.9312965E+03 bohr^3
 Unit cell volume ucvol=  1.9312965E+03 bohr^3
 Angles (23,13,12)=  9.00000000E+01  9.00000000E+01  9.00000000E+01 degrees
 Angles (23,13,12)=  9.00000000E+01  9.00000000E+01  9.00000000E+01 degrees

 getcut: wavevector=  0.0000  0.0000  0.0000  ngfft=  16  60  60
         ecut(hartree)=     10.000   => boxcut(ratio)=   2.17073

--------------------------------------------------------------------------------
 Perturbation wavevector (in red.coord.)   0.000000  0.000000  0.000000
 Perturbation : derivative vs k along direction   1
 littlegroup_pert: only one element in the set of symmetries for this perturbation:
   1   0   0   0   1   0   0   0   1
 symatm: atom number 1 is reached starting at atom
   1
 symatm: atom number 2 is reached starting at atom
   2
 symkpt : not enough symmetry to change the number of k points.
 getmpw: optimal value of mpw= 2952
 Memory required for psi0_k, psi0_kq psi1_kq: 0.8 [Mb] <<< MEM
- File: io_dir/01_hchain_o_DS1_WFK does not exist but found netcdf file with similar name.
 getmpw: optimal value of mpw= 2952
 qpt is Gamma, psi_k+q initialized from psi_k in memory
 Initialisation of the first-order wave-functions :
  ireadwf=   0

 getcut: wavevector=  0.0000  0.0000  0.0000  ngfft=  16  60  60
         ecut(hartree)=     10.000   => boxcut(ratio)=   2.17073
-ETOT  1  -2.9419006573723     -2.942E+00 8.286E-03 0.000E+00
 dfpt_scfcv: previous iteration took  0.06 [s]
 ETOT  2  -2.9424065643350     -5.059E-04 3.219E-06 0.000E+00
 dfpt_scfcv: previous iteration took  0.05 [s]
 ETOT  3  -2.9424068033190     -2.390E-07 1.032E-09 0.000E+00
 dfpt_scfcv: previous iteration took  0.06 [s]
 ETOT  4  -2.9424068033921     -7.309E-11 5.145E-13 0.000E+00

 At SCF step    4   max residual=  5.14E-13 < tolwfr=  1.00E-12 =>converged.

 fftdatar_write: About to write data to: io_dir/01_hchain_o_DS3_DEN7 with iomode: IO_MODE_ETSF
- Creating HDf5 file with MPI-IO support: io_dir/01_hchain_o_DS3_DEN7.nc
- Opening HDf5 file with MPI-IO support: io_dir/01_hchain_o_DS3_DEN7.nc
 IO operation completed. cpu:  0.02 [s] , wall:  0.29 [s] <<< TIME

 fftdatar_write: About to write data to: io_dir/01_hchain_o_DS3_POT7 with iomode: IO_MODE_ETSF
- Creating HDf5 file with MPI-IO support: io_dir/01_hchain_o_DS3_POT7.nc
- Opening HDf5 file with MPI-IO support: io_dir/01_hchain_o_DS3_POT7.nc
 IO operation completed. cpu:  0.03 [s] , wall:  0.37 [s] <<< TIME
- Opening HDf5 file with MPI-IO support: io_dir/01_hchain_o_DS3_POT7.nc
================================================================================

 ----iterations are completed or convergence reached----

 Mean square residual over all n,k,spin=   25.855E-14; max=  51.448E-14
   0.0000  0.0000  0.0000    1  1.28564E-13 kpt; spin; max resid(k); each band:
  1.29E-13
   0.1667  0.0000  0.0000    1  1.39152E-13 kpt; spin; max resid(k); each band:
  1.39E-13
   0.3333  0.0000  0.0000    1  5.14479E-13 kpt; spin; max resid(k); each band:
  5.14E-13
   0.5000  0.0000  0.0000    1  1.15470E-13 kpt; spin; max resid(k); each band:
  1.15E-13
  -0.3333  0.0000  0.0000    1  5.14479E-13 kpt; spin; max resid(k); each band:
  5.14E-13
  -0.1667  0.0000  0.0000    1  1.39152E-13 kpt; spin; max resid(k); each band:
  1.39E-13
 MY_KPT_BANDS part of WFK written to file. completed. cpu:  0.02 [s] , wall:  0.17 [s] <<< TIME
- Creating HDf5 file with MPI-IO support: io_dir/01_hchain_o_DS3_EVK.nc
 dfpt_looppert : ek2=    5.8900746379E+00
          f-sum rule ratio=    9.9856703552E-01

 Eight components of 2nd-order total energy (hartree) are
 1,2,3: 0th-order hamiltonian combined with 1st-order wavefunctions
     kin0=   4.45627584E+00 eigvalue=   2.49905820E+00  local=  -3.71594276E+00
 4,5,6: 1st-order hamiltonian combined with 1st and 0th-order wfs
     kin1=  -5.88163437E+00  Hartree=   0.00000000E+00     xc=   0.00000000E+00
 7,8,9: eventually, occupation + non-local contributions
    edocc=   0.00000000E+00     enl0=  -2.96984972E-01   enl1=  -3.17873786E-03
 1-9 gives the relaxation energy (to be shifted if some occ is /=2.0)
   erelax=  -2.94240680E+00
  No Ewald or frozen-wf contrib.: the relaxation energy is the total one
 2DEtotal=   -0.2942406803E+01 Ha. Also 2DEtotal=   -0.800669609994E+02 eV
    (  non-var. 2DEtotal :   -2.9424065540E+00 Ha)

--------------------------------------------------------------------------------
 Perturbation wavevector (in red.coord.)   0.000000  0.000000  0.000000
 Perturbation : derivative vs k along direction   2
 littlegroup_pert: only one element in the set of symmetries for this perturbation:
   1   0   0   0   1   0   0   0   1
 symatm: atom number 1 is reached starting at atom
   1
 symatm: atom number 2 is reached starting at atom
   2
 symkpt : not enough symmetry to change the number of k points.
 getmpw: optimal value of mpw= 2952
 Memory required for psi0_k, psi0_kq psi1_kq: 0.8 [Mb] <<< MEM
- File: io_dir/01_hchain_o_DS1_WFK does not exist but found netcdf file with similar name.
 getmpw: optimal value of mpw= 2952
 qpt is Gamma, psi_k+q initialized from psi_k in memory
 Initialisation of the first-order wave-functions :
  ireadwf=   0

 getcut: wavevector=  0.0000  0.0000  0.0000  ngfft=  16  60  60
         ecut(hartree)=     10.000   => boxcut(ratio)=   2.17073
-ETOT  1 -0.21095872896946     -2.110E-01 1.252E-03 0.000E+00
 dfpt_scfcv: previous iteration took  0.06 [s]
 ETOT  2 -0.21105492848678     -9.620E-05 4.341E-07 0.000E+00
 dfpt_scfcv: previous iteration took  0.05 [s]
 ETOT  3 -0.21105494693665     -1.845E-08 2.233E-10 0.000E+00
 dfpt_scfcv: previous iteration took  0.05 [s]
 ETOT  4 -0.21105494694804     -1.139E-11 6.137E-13 0.000E+00

 At SCF step    4   max residual=  6.14E-13 < tolwfr=  1.00E-12 =>converged.

 fftdatar_write: About to write data to: io_dir/01_hchain_o_DS3_DEN8 with iomode: IO_MODE_ETSF
- Creating HDf5 file with MPI-IO support: io_dir/01_hchain_o_DS3_DEN8.nc
- Opening HDf5 file with MPI-IO support: io_dir/01_hchain_o_DS3_DEN8.nc
 IO operation completed. cpu:  0.06 [s] , wall:  0.39 [s] <<< TIME

 fftdatar_write: About to write data to: io_dir/01_hchain_o_DS3_POT8 with iomode: IO_MODE_ETSF
- Creating HDf5 file with MPI-IO support: io_dir/01_hchain_o_DS3_POT8.nc
- Opening HDf5 file with MPI-IO support: io_dir/01_hchain_o_DS3_POT8.nc
 IO operation completed. cpu:  0.09 [s] , wall:  0.38 [s] <<< TIME
- Opening HDf5 file with MPI-IO support: io_dir/01_hchain_o_DS3_POT8.nc
================================================================================

 ----iterations are completed or convergence reached----

 Mean square residual over all n,k,spin=   33.485E-14; max=  61.372E-14
   0.0000  0.0000  0.0000    1  8.00680E-14 kpt; spin; max resid(k); each band:
  8.01E-14
   0.1667  0.0000  0.0000    1  5.19581E-13 kpt; spin; max resid(k); each band:
  5.20E-13
   0.3333  0.0000  0.0000    1  1.38083E-13 kpt; spin; max resid(k); each band:
  1.38E-13
   0.5000  0.0000  0.0000    1  6.13716E-13 kpt; spin; max resid(k); each band:
  6.14E-13
  -0.3333  0.0000  0.0000    1  1.38083E-13 kpt; spin; max resid(k); each band:
  1.38E-13
  -0.1667  0.0000  0.0000    1  5.19581E-13 kpt; spin; max resid(k); each band:
  5.20E-13
 MY_KPT_BANDS part of WFK written to file. completed. cpu:  0.02 [s] , wall:  0.15 [s] <<< TIME
- Creating HDf5 file with MPI-IO support: io_dir/01_hchain_o_DS3_EVK.nc
 dfpt_looppert : ek2=    4.2337016221E-01
          f-sum rule ratio=    9.9578988598E-01

 Eight components of 2nd-order total energy (hartree) are
 1,2,3: 0th-order hamiltonian combined with 1st-order wavefunctions
     kin0=   1.96554483E-01 eigvalue=   1.27233021E-01  local=  -1.12156913E-01
 4,5,6: 1st-order hamiltonian combined with 1st and 0th-order wfs
     kin1=  -4.21587726E-01  Hartree=   0.00000000E+00     xc=   0.00000000E+00
 7,8,9: eventually, occupation + non-local contributions
    edocc=   0.00000000E+00     enl0=  -5.75782132E-04   enl1=  -5.22029995E-04
 1-9 gives the relaxation energy (to be shifted if some occ is /=2.0)
   erelax=  -2.11054947E-01
  No Ewald or frozen-wf contrib.: the relaxation energy is the total one
 2DEtotal=   -0.2110549469E+00 Ha. Also 2DEtotal=   -0.574309717696E+01 eV
    (  non-var. 2DEtotal :   -2.1105487777E-01 Ha)

--------------------------------------------------------------------------------
 Perturbation wavevector (in red.coord.)   0.000000  0.000000  0.000000
 Perturbation : derivative vs k along direction   3
 littlegroup_pert: only one element in the set of symmetries for this perturbation:
   1   0   0   0   1   0   0   0   1
 symatm: atom number 1 is reached starting at atom
   1
 symatm: atom number 2 is reached starting at atom
   2
 symkpt : not enough symmetry to change the number of k points.
 getmpw: optimal value of mpw= 2952
 Memory required for psi0_k, psi0_kq psi1_kq: 0.8 [Mb] <<< MEM
- File: io_dir/01_hchain_o_DS1_WFK does not exist but found netcdf file with similar name.
 getmpw: optimal value of mpw= 2952
 qpt is Gamma, psi_k+q initialized from psi_k in memory
 Initialisation of the first-order wave-functions :
  ireadwf=   0

 getcut: wavevector=  0.0000  0.0000  0.0000  ngfft=  16  60  60
         ecut(hartree)=     10.000   => boxcut(ratio)=   2.17073
-ETOT  1 -0.21095872890429     -2.110E-01 1.252E-03 0.000E+00
 dfpt_scfcv: previous iteration took  0.06 [s]
 ETOT  2 -0.21105492841979     -9.620E-05 4.341E-07 0.000E+00
 dfpt_scfcv: previous iteration took  0.05 [s]
 ETOT  3 -0.21105494686966     -1.845E-08 2.233E-10 0.000E+00
 dfpt_scfcv: previous iteration took  0.05 [s]
 ETOT  4 -0.21105494688105     -1.139E-11 6.137E-13 0.000E+00

 At SCF step    4   max residual=  6.14E-13 < tolwfr=  1.00E-12 =>converged.

 fftdatar_write: About to write data to: io_dir/01_hchain_o_DS3_DEN9 with iomode: IO_MODE_ETSF
- Creating HDf5 file with MPI-IO support: io_dir/01_hchain_o_DS3_DEN9.nc
- Opening HDf5 file with MPI-IO support: io_dir/01_hchain_o_DS3_DEN9.nc
 IO operation completed. cpu:  0.06 [s] , wall:  0.64 [s] <<< TIME

 fftdatar_write: About to write data to: io_dir/01_hchain_o_DS3_POT9 with iomode: IO_MODE_ETSF
- Creating HDf5 file with MPI-IO support: io_dir/01_hchain_o_DS3_POT9.nc
- Opening HDf5 file with MPI-IO support: io_dir/01_hchain_o_DS3_POT9.nc
 IO operation completed. cpu:  0.04 [s] , wall:  0.34 [s] <<< TIME
- Opening HDf5 file with MPI-IO support: io_dir/01_hchain_o_DS3_POT9.nc
================================================================================

 ----iterations are completed or convergence reached----

 Mean square residual over all n,k,spin=   33.485E-14; max=  61.372E-14
   0.0000  0.0000  0.0000    1  8.00680E-14 kpt; spin; max resid(k); each band:
  8.01E-14
   0.1667  0.0000  0.0000    1  5.19581E-13 kpt; spin; max resid(k); each band:
  5.20E-13
   0.3333  0.0000  0.0000    1  1.38083E-13 kpt; spin; max resid(k); each band:
  1.38E-13
   0.5000  0.0000  0.0000    1  6.13716E-13 kpt; spin; max resid(k); each band:
  6.14E-13
  -0.3333  0.0000  0.0000    1  1.38083E-13 kpt; spin; max resid(k); each band:
  1.38E-13
  -0.1667  0.0000  0.0000    1  5.19581E-13 kpt; spin; max resid(k); each band:
  5.20E-13
 MY_KPT_BANDS part of WFK written to file. completed. cpu:  0.02 [s] , wall:  0.13 [s] <<< TIME
- Creating HDf5 file with MPI-IO support: io_dir/01_hchain_o_DS3_EVK.nc
 dfpt_looppert : ek2=    4.2337016221E-01
          f-sum rule ratio=    9.9578988566E-01

 Eight components of 2nd-order total energy (hartree) are
 1,2,3: 0th-order hamiltonian combined with 1st-order wavefunctions
     kin0=   1.96554483E-01 eigvalue=   1.27233021E-01  local=  -1.12156913E-01
 4,5,6: 1st-order hamiltonian combined with 1st and 0th-order wfs
     kin1=  -4.21587725E-01  Hartree=   0.00000000E+00     xc=   0.00000000E+00
 7,8,9: eventually, occupation + non-local contributions
    edocc=   0.00000000E+00     enl0=  -5.75782132E-04   enl1=  -5.22029995E-04
 1-9 gives the relaxation energy (to be shifted if some occ is /=2.0)
   erelax=  -2.11054947E-01
  No Ewald or frozen-wf contrib.: the relaxation energy is the total one
 2DEtotal=   -0.2110549469E+00 Ha. Also 2DEtotal=   -0.574309717513E+01 eV
    (  non-var. 2DEtotal :   -2.1105487771E-01 Ha)
================================================================================

 ---- first-order wavefunction calculations are completed ----


 Total localisation tensor (bohr^2) in cartesian coordinates
  WARNING : still subject to testing - especially symmetries.

 respfn : d/dk was computed, but no 2DTE, so no DDB output.

================================================================================
== DATASET  4 ==================================================================
-   mpi_nproc: 1, omp_nthreads: 1 (-1 if OMP is not activated)


--- !COMMENT
src_file: m_xgScalapack.F90
src_line: 236
message: |
    xgScalapack in auto mode
...

 mkfilename : getwfk/=0, take file _WFK from output of DATASET   1.

 mkfilename : getddk/=0, take file _1WF from output of DATASET   3.


 getdim_nloc : deduce lmnmax  =   5, lnmax  =   3,
                      lmnmaxso=   5, lnmaxso=   3.
 Exchange-correlation functional for the present dataset will be:
  GGA: Perdew-Burke-Ernzerhof functional - ixc=11
 Citation for XC functional:
  J.P.Perdew, K.Burke, M.Ernzerhof, PRL 77, 3865 (1996)

 Unit cell volume ucvol=  1.9312965E+03 bohr^3
 Angles (23,13,12)=  9.00000000E+01  9.00000000E+01  9.00000000E+01 degrees
 setup1 : take into account q-point for computing boxcut.

 getcut: wavevector=  0.0000  0.0000  0.0000  ngfft=  16  60  60
         ecut(hartree)=     10.000   => boxcut(ratio)=   2.17073
[...]
    (  non-var. 2DEtotal :    9.6201222906E+00 Ha)


--------------------------------------------------------------------------------
 Perturbation wavevector (in red.coord.)   0.500000  0.000000  0.000000
 Perturbation : displacement of atom   2   along direction   2
 littlegroup_pert: found     2 symmetries that leave the perturbation invariant:
   1   0   0   0   1   0   0   0   1
   1   0   0   0   1   0   0   0  -1
 symatm: atom number 1 is reached starting at atom
   1  1
 symatm: atom number 2 is reached starting at atom
   2  2
 symkpt : not enough symmetry to change the number of k points.
 getmpw: optimal value of mpw= 2952
 Memory required for psi0_k, psi0_kq psi1_kq: 0.8 [Mb] <<< MEM
- File: io_dir/01_hchain_o_DS1_WFK does not exist but found netcdf file with similar name.
 getmpw: optimal value of mpw= 2952
- File: io_dir/01_hchain_o_DS1_WFK does not exist but found netcdf file with similar name.
 Initialisation of the first-order wave-functions :
  ireadwf=   0
 Initializing rhor1 from valence densities taken from pseudopotential files

 getcut: wavevector=  0.0000  0.0000  0.0000  ngfft=  16  60  60
         ecut(hartree)=     10.000   => boxcut(ratio)=   2.17073

 ITER STEP NUMBER     1
-ETOT  1  -3.1742354377581     -3.061E+02 6.866E-01 8.264E+09

 Simple mixing update:
  residual square of the potential:    8153318615.4484901
 dfpt_scfcv: previous iteration took  0.10 [s]

 ITER STEP NUMBER     2
 ETOT  2  -3.8304502723933     -6.562E-01 1.970E-03 5.310E+06

 Pulay update with  1 previous iterations:
 mixing of old trial potential: alpha(m:m-4)=   1.02     -0.226E-01
 dfpt_scfcv: previous iteration took  0.09 [s]

 ITER STEP NUMBER     3
 ETOT  3  -3.8590591366963     -2.861E-02 3.528E-05 1.008E+04

 Pulay update with  2 previous iterations:
 mixing of old trial potential: alpha(m:m-4)=   1.04     -0.429E-01  0.402E-03
 dfpt_scfcv: previous iteration took  0.09 [s]

 ITER STEP NUMBER     4
 ETOT  4  -3.8635588057056     -4.500E-03 2.754E-06 8.905E+02

 Pulay update with  3 previous iterations:
 mixing of old trial potential: alpha(m:m-4)=   1.37     -0.381      0.134E-01 -0.118E-03
 dfpt_scfcv: previous iteration took  0.09 [s]

 ITER STEP NUMBER     5
 ETOT  5  -3.8650727514687     -1.514E-03 1.084E-06 7.576E+01

 Pulay update with  4 previous iterations:
 mixing of old trial potential: alpha(m:m-4)=   1.57     -0.721      0.151     -0.487E-02  0.455E-04
 dfpt_scfcv: previous iteration took  0.09 [s]

 ITER STEP NUMBER     6
 ETOT  6  -3.8654170855339     -3.443E-04 3.501E-07 1.625E+00

 Pulay update with  5 previous iterations:
 mixing of old trial potential: alpha(m:m-4)=   1.37     -0.509      0.168     -0.279E-01  0.749E-03
 dfpt_scfcv: previous iteration took  0.09 [s]

 ITER STEP NUMBER     7
 ETOT  7  -3.8654457008944     -2.862E-05 3.469E-08 4.044E-02

 Pulay update with  6 previous iterations:
 mixing of old trial potential: alpha(m:m-4)=   1.38     -0.476      0.131     -0.377E-01  0.548E-02
 dfpt_scfcv: previous iteration took  0.09 [s]

 ITER STEP NUMBER     8
 ETOT  8  -3.8654472656148     -1.565E-06 2.202E-09 8.319E-04

 Pulay update with  7 previous iterations:
 mixing of old trial potential: alpha(m:m-4)=   1.27     -0.338      0.783E-01 -0.192E-01  0.496E-02
 dfpt_scfcv: previous iteration took  0.09 [s]

 ITER STEP NUMBER     9
 ETOT  9  -3.8654473017221     -3.611E-08 6.643E-11 1.549E-05

 Pulay update with  7 previous iterations:
 mixing of old trial potential: alpha(m:m-4)=   1.14     -0.153      0.166E-01 -0.125E-02  0.621E-03
 dfpt_scfcv: previous iteration took  0.09 [s]

 ITER STEP NUMBER    10
 ETOT 10  -3.8654473022029     -4.808E-10 8.187E-13 1.022E-06

 At SCF step   10   max residual=  8.19E-13 < tolwfr=  1.00E-12 =>converged.

 fftdatar_write: About to write data to: io_dir/01_hchain_o_DS7_DEN5 with iomode: IO_MODE_ETSF
- Creating HDf5 file with MPI-IO support: io_dir/01_hchain_o_DS7_DEN5.nc
- Opening HDf5 file with MPI-IO support: io_dir/01_hchain_o_DS7_DEN5.nc
 IO operation completed. cpu:  0.02 [s] , wall:  0.37 [s] <<< TIME

 fftdatar_write: About to write data to: io_dir/01_hchain_o_DS7_POT5 with iomode: IO_MODE_ETSF
- Creating HDf5 file with MPI-IO support: io_dir/01_hchain_o_DS7_POT5.nc
- Opening HDf5 file with MPI-IO support: io_dir/01_hchain_o_DS7_POT5.nc
 IO operation completed. cpu:  0.03 [s] , wall:  0.41 [s] <<< TIME
- Opening HDf5 file with MPI-IO support: io_dir/01_hchain_o_DS7_POT5.nc
================================================================================

 ----iterations are completed or convergence reached----

 Mean square residual over all n,k,spin=   72.625E-14; max=  81.868E-14
   0.0000  0.0000  0.0000    1  6.66866E-13 kpt; spin; max resid(k); each band:
  6.67E-13
   0.1667  0.0000  0.0000    1  8.18680E-13 kpt; spin; max resid(k); each band:
  8.19E-13
   0.3333  0.0000  0.0000    1  8.08994E-13 kpt; spin; max resid(k); each band:
  8.09E-13
   0.5000  0.0000  0.0000    1  4.35270E-13 kpt; spin; max resid(k); each band:
  4.35E-13
  -0.3333  0.0000  0.0000    1  8.08994E-13 kpt; spin; max resid(k); each band:
  8.09E-13
  -0.1667  0.0000  0.0000    1  8.18680E-13 kpt; spin; max resid(k); each band:
  8.19E-13
 MY_KPT_BANDS part of WFK written to file. completed. cpu:  0.01 [s] , wall:  0.14 [s] <<< TIME

 Thirteen components of 2nd-order total energy (hartree) are
 1,2,3: 0th-order hamiltonian combined with 1st-order wavefunctions
     kin0=   3.38623897E+02 eigvalue=   6.91863520E+01  local=  -1.22120020E+02
 4,5,6: 1st-order hamiltonian combined with 1st and 0th-order wfs
 loc psp =  -4.69666158E+02  Hartree=   7.38359002E+01     xc=  -5.07879681E+01
 note that "loc psp" includes a xc core correction that could be resolved
 7,8,9: eventually, occupation + non-local contributions
    edocc=   0.00000000E+00     enl0=  -1.90809578E+00   enl1=  -1.43994017E+02
 1-9 gives the relaxation energy (to be shifted if some occ is /=2.0)
   erelax=  -3.06830111E+02
 10,11,12 Non-relaxation  contributions : frozen-wavefunctions and Ewald
 fr.local=   3.68842150E+02 fr.nonlo=   8.87951878E+01  Ewald=  -1.54672674E+02
 dfpt_prtene : non-relax=    3.029647E+02
 13,14 Frozen wf xc core corrections (1) and (2)
 frxc 1  =   0.00000000E+00  frxc 2 =   0.00000000E+00
 Resulting in :
 2DEtotal=   -0.3865447302E+01 Ha. Also 2DEtotal=   -0.105184170331E+03 eV
    (2DErelax=   -3.0683011098E+02 Ha. 2DEnonrelax=    3.0296466368E+02 Ha)
    (  non-var. 2DEtotal :   -3.8654242938E+00 Ha)

================================================================================

 ---- first-order wavefunction calculations are completed ----


 ==> Compute Derivative Database <==
- Creating HDf5 file with MPI-IO support: io_dir/01_hchain_o_DS7_DDB.nc
 
 phonon wavelength (reduced coordinates) , norm, and energies in hartree
  0.50 0.00 0.00 1.00
 -3.303371232E-03 -3.303371232E-03 -6.062266553E-04 -6.062266553E-04  2.119588233E-03
  1.964952106E-02

 Zero Point Motion energy (sum of freqs/2)=  6.974956761E-03

== END DATASET(S) ==============================================================
================================================================================
  
 -outvars: echo values of variables after computation  --------
 
 These variables are accessible in NetCDF format (io_dir/01_hchain_o_OUT.nc)

-          iomode           3
            acell      5.1778500000E+00  1.0000000000E+01  1.0000000000E+01 Bohr
              amu      1.00794000E+00
           diemac      4.50000000E+00
             ecut      1.00000000E+01 Hartree
           etotal1    -1.1436128231E+00
           etotal3    -2.1105494688E-01
           etotal4    -4.9660647801E-01
           etotal5    -4.1436345900E+00
           etotal6    -3.9541791450E+00
           etotal7    -3.8654473022E+00
            fcart1    -1.3989926284E-02 -0.0000000000E+00 -0.0000000000E+00
                       1.3989926284E-02 -0.0000000000E+00 -0.0000000000E+00
            fcart4     0.0000000000E+00  0.0000000000E+00  0.0000000000E+00
                       0.0000000000E+00  0.0000000000E+00  0.0000000000E+00
            fcart5     0.0000000000E+00  0.0000000000E+00  0.0000000000E+00
                       0.0000000000E+00  0.0000000000E+00  0.0000000000E+00
            fcart6     0.0000000000E+00  0.0000000000E+00  0.0000000000E+00
                       0.0000000000E+00  0.0000000000E+00  0.0000000000E+00
            fcart7     0.0000000000E+00  0.0000000000E+00  0.0000000000E+00
                       0.0000000000E+00  0.0000000000E+00  0.0000000000E+00
-          fftalg         112
           getddk1          0
           getddk2          0
           getddk3          0
           getddk4          3
           getddk5          0
           getddk6          0
           getddk7          0
           getden1          0
           getden2          1
           getden3          0
           getden4          0
           getden5          0
           getden6          0
           getden7          0
           getwfk1          0
           getwfk2          0
           getwfk3          1
           getwfk4          1
           getwfk5          1
           getwfk6          1
           getwfk7          1
           iprcel          21
             iscf1          7
             iscf2         -2
             iscf3         -3
             iscf4          7
             iscf5          7
             iscf6          7
             iscf7          7
           istwfk1       2    0    0    3
           istwfk2       1    0    0    1
           istwfk3       1    0    0    1    0    0
           istwfk4       1    0    0    1    0    0
           istwfk5       1    0    0    1    0    0
           istwfk6       1    0    0    1    0    0
           istwfk7       1    0    0    1    0    0
              ixc          11
           jdtset        1    2    3    4    5    6    7
              kpt1     0.00000000E+00  0.00000000E+00  0.00000000E+00
                       1.66666667E-01  0.00000000E+00  0.00000000E+00
                       3.33333333E-01  0.00000000E+00  0.00000000E+00
                       5.00000000E-01  0.00000000E+00  0.00000000E+00
              kpt2     0.00000000E+00  0.00000000E+00  0.00000000E+00
                       1.66666667E-01  0.00000000E+00  0.00000000E+00
                       3.33333333E-01  0.00000000E+00  0.00000000E+00
                       5.00000000E-01  0.00000000E+00  0.00000000E+00
              kpt3     0.00000000E+00  0.00000000E+00  0.00000000E+00
                       1.66666667E-01  0.00000000E+00  0.00000000E+00
                       3.33333333E-01  0.00000000E+00  0.00000000E+00
                       5.00000000E-01  0.00000000E+00  0.00000000E+00
                      -3.33333333E-01  0.00000000E+00  0.00000000E+00
                      -1.66666667E-01  0.00000000E+00  0.00000000E+00
              kpt4     0.00000000E+00  0.00000000E+00  0.00000000E+00
                       1.66666667E-01  0.00000000E+00  0.00000000E+00
                       3.33333333E-01  0.00000000E+00  0.00000000E+00
                       5.00000000E-01  0.00000000E+00  0.00000000E+00
                      -3.33333333E-01  0.00000000E+00  0.00000000E+00
                      -1.66666667E-01  0.00000000E+00  0.00000000E+00
              kpt5     0.00000000E+00  0.00000000E+00  0.00000000E+00
                       1.66666667E-01  0.00000000E+00  0.00000000E+00
                       3.33333333E-01  0.00000000E+00  0.00000000E+00
                       5.00000000E-01  0.00000000E+00  0.00000000E+00
                      -3.33333333E-01  0.00000000E+00  0.00000000E+00
                      -1.66666667E-01  0.00000000E+00  0.00000000E+00
              kpt6     0.00000000E+00  0.00000000E+00  0.00000000E+00
                       1.66666667E-01  0.00000000E+00  0.00000000E+00
                       3.33333333E-01  0.00000000E+00  0.00000000E+00
                       5.00000000E-01  0.00000000E+00  0.00000000E+00
                      -3.33333333E-01  0.00000000E+00  0.00000000E+00
                      -1.66666667E-01  0.00000000E+00  0.00000000E+00
              kpt7     0.00000000E+00  0.00000000E+00  0.00000000E+00
                       1.66666667E-01  0.00000000E+00  0.00000000E+00
                       3.33333333E-01  0.00000000E+00  0.00000000E+00
                       5.00000000E-01  0.00000000E+00  0.00000000E+00
                      -3.33333333E-01  0.00000000E+00  0.00000000E+00
                      -1.66666667E-01  0.00000000E+00  0.00000000E+00
           kptopt1          1
           kptopt2          1
           kptopt3          3
           kptopt4          3
           kptopt5          3
           kptopt6          3
           kptopt7          3
         kptrlatt        6    0    0      0    1    0      0    0    1
          kptrlen      3.10671000E+01
P           mkmem1          4
P           mkmem2          4
P           mkmem3          6
P           mkmem4          6
P           mkmem5          6
P           mkmem6          6
P           mkmem7          6
P          mkqmem1          4
P          mkqmem2          4
P          mkqmem3          6
P          mkqmem4          6
P          mkqmem5          6
P          mkqmem6          6
P          mkqmem7          6
P          mk1mem1          4
P          mk1mem2          4
P          mk1mem3          6
P          mk1mem4          6
P          mk1mem5          6
P          mk1mem6          6
P          mk1mem7          6
            natom           2
            nband1          2
            nband2         10
            nband3          1
            nband4          1
            nband5          1
            nband6          1
            nband7          1
           nbdbuf           2
           ndtset           7
            ngfft          16      60      60
             nkpt1          4
             nkpt2          4
             nkpt3          6
             nkpt4          6
             nkpt5          6
             nkpt6          6
             nkpt7          6
             nqpt1          0
             nqpt2          0
             nqpt3          1
             nqpt4          1
             nqpt5          1
             nqpt6          1
             nqpt7          1
            nstep1        100
            nstep2        100
            nstep3        200
            nstep4        200
            nstep5        200
            nstep6        200
            nstep7        200
             nsym           8
           ntypat           1
              occ1     2.000000  0.000000
              occ3     2.000000
              occ4     2.000000
              occ5     2.000000
              occ6     2.000000
              occ7     2.000000
        optdriver1          0
        optdriver2          0
        optdriver3          1
        optdriver4          1
        optdriver5          1
        optdriver6          1
        optdriver7          1
           prtpot1          0
           prtpot2          0
           prtpot3          1
           prtpot4          1
           prtpot5          1
           prtpot6          1
           prtpot7          1
          prtkbff1          0
          prtkbff2          1
          prtkbff3          0
          prtkbff4          0
          prtkbff5          0
          prtkbff6          0
          prtkbff7          0
              qpt1     0.00000000E+00  0.00000000E+00  0.00000000E+00
              qpt2     0.00000000E+00  0.00000000E+00  0.00000000E+00
              qpt3     0.00000000E+00  0.00000000E+00  0.00000000E+00
              qpt4     0.00000000E+00  0.00000000E+00  0.00000000E+00
              qpt5     1.66666667E-01  0.00000000E+00  0.00000000E+00
              qpt6     3.33333333E-01  0.00000000E+00  0.00000000E+00
              qpt7     5.00000000E-01  0.00000000E+00  0.00000000E+00
          rfatpol           1       2
            rfdir           1       1       1
           rfelfd1          0
           rfelfd2          0
           rfelfd3          2
           rfelfd4          3
           rfelfd5          0
           rfelfd6          0
           rfelfd7          0
           rfphon1          0
           rfphon2          0
           rfphon3          0
           rfphon4          1
           rfphon5          1
           rfphon6          1
           rfphon7          1
            rprim      1.0000000000E+00  0.0000000000E+00  0.0000000000E+00
                       0.0000000000E+00  1.9313000000E+00  0.0000000000E+00
                       0.0000000000E+00  0.0000000000E+00  1.9313000000E+00
          spgroup         123
           strten1    -1.1698850839E-08  1.5175624082E-05  1.5175624082E-05
                       0.0000000000E+00  0.0000000000E+00  0.0000000000E+00
           strten4     0.0000000000E+00  0.0000000000E+00  0.0000000000E+00
                       0.0000000000E+00  0.0000000000E+00  0.0000000000E+00
           strten5     0.0000000000E+00  0.0000000000E+00  0.0000000000E+00
                       0.0000000000E+00  0.0000000000E+00  0.0000000000E+00
           strten6     0.0000000000E+00  0.0000000000E+00  0.0000000000E+00
                       0.0000000000E+00  0.0000000000E+00  0.0000000000E+00
           strten7     0.0000000000E+00  0.0000000000E+00  0.0000000000E+00
                       0.0000000000E+00  0.0000000000E+00  0.0000000000E+00
        symmorphi           0
           symrel      1  0  0   0  1  0   0  0  1       1  0  0   0  1  0   0  0 -1
                       1  0  0   0 -1  0   0  0 -1       1  0  0   0 -1  0   0  0  1
                       1  0  0   0  0  1   0  1  0       1  0  0   0  0  1   0 -1  0
                       1  0  0   0  0 -1   0 -1  0       1  0  0   0  0 -1   0  1  0
           toldfe1     1.00000000E-06 Hartree
           toldfe2     0.00000000E+00 Hartree
           toldfe3     0.00000000E+00 Hartree
           toldfe4     0.00000000E+00 Hartree
           toldfe5     0.00000000E+00 Hartree
           toldfe6     0.00000000E+00 Hartree
           toldfe7     0.00000000E+00 Hartree
           tolwfr1     0.00000000E+00
           tolwfr2     1.00000000E-12
           tolwfr3     1.00000000E-12
           tolwfr4     1.00000000E-12
           tolwfr5     1.00000000E-12
           tolwfr6     1.00000000E-12
           tolwfr7     1.00000000E-12
            typat      1  1
              wtk1       0.16667    0.33333    0.33333    0.16667
              wtk2       0.16667    0.33333    0.33333    0.16667
              wtk3       0.16667    0.16667    0.16667    0.16667    0.16667    0.16667
              wtk4       0.16667    0.16667    0.16667    0.16667    0.16667    0.16667
              wtk5       0.16667    0.16667    0.16667    0.16667    0.16667    0.16667
              wtk6       0.16667    0.16667    0.16667    0.16667    0.16667    0.16667
              wtk7       0.16667    0.16667    0.16667    0.16667    0.16667    0.16667
           xangst      0.0000000000E+00  0.0000000000E+00  0.0000000000E+00
                       7.4000007658E-01  0.0000000000E+00  0.0000000000E+00
            xcart      0.0000000000E+00  0.0000000000E+00  0.0000000000E+00
                       1.3983974831E+00  0.0000000000E+00  0.0000000000E+00
             xred      0.0000000000E+00  0.0000000000E+00  0.0000000000E+00
                       2.7007300000E-01  0.0000000000E+00  0.0000000000E+00
            znucl        1.00000

================================================================================
  
 Proc.   0 individual time (sec): cpu=         24.6  wall=         49.1

 Calculation completed.
.Delivered   3 WARNINGs and  10 COMMENTs to log file.

--- !FinalSummary
program: abinit
version: 9.7.4
start_datetime: Tue Dec 13 09:40:59 2022
end_datetime: Tue Dec 13 09:41:48 2022
overall_cpu_time:          24.6
overall_wall_time:          49.1
exit_requested_by_user: no 
timelimit: 0
pseudos: 
    H   : 20698c48a21fe3532638b4d685fd1c8b
usepaw: 0
mpi_procs: 1
omp_threads: 1
num_warnings: 3
num_comments: 10
...
