
     Program PWSCF v.5.1 (svn rev. 381M) starts on 18Jul2015 at 16:27:46 

     This program is part of the open-source Quantum ESPRESSO suite
     for quantum simulation of materials; please cite
         "P. Giannozzi et al., J. Phys.:Condens. Matter 21 395502 (2009);
          URL http://www.quantum-espresso.org", 
     in publications or presentations arising from this work. More details at
     http://www.quantum-espresso.org/quote

     Parallel version (MPI), running on     1 processors
     Waiting for input...
     Reading input from standard input
Warning: card  &IONS ignored
Warning: card         ION_DYNAMICS = 'BFGS', ignored
Warning: card  /&END ignored
Warning: card  &PHONON ignored
Warning: card               XQQ(3) = 0.0000000, ignored
Warning: card               XQQ(1) = 0.0000000, ignored
Warning: card               XQQ(2) = -0.0000000, ignored
Warning: card  /&END ignored

     Current dimensions of program PWSCF are:
     Max number of different atomic species (ntypx) = 10
     Max number of k-points (npk) =  40000
     Max angular momentum in pseudopotentials (lmaxx) =  3

     Subspace diagonalization in iterative solution of the eigenvalue problem:
     a serial algorithm will be used

 
     G-vector sticks info
     --------------------
     sticks:   dense  smooth     PW     G-vecs:    dense   smooth      PW
     Sum         583     583    163                56613    56613    9123
 


     bravais-lattice index     =            4
     lattice parameter (alat)  =       5.8772  a.u.
     unit-cell volume          =     897.4163 (a.u.)^3
     number of atoms/cell      =            3
     number of atomic types    =            2
     number of electrons       =        26.00
     number of Kohn-Sham states=           26
     kinetic-energy cutoff     =      60.0000  Ry
     charge density cutoff     =     240.0000  Ry
     convergence threshold     =      1.0E-12
     mixing beta               =       0.7000
     number of iterations used =            8  plain     mixing
     Exchange-correlation      = SLA-PZ-NOGX-NOGC ( 1  1  0  0 0)
     Non magnetic calculation with spin-orbit


     celldm(1)=   5.877208  celldm(2)=   0.000000  celldm(3)=   5.104465
     celldm(4)=   0.000000  celldm(5)=   0.000000  celldm(6)=   0.000000

     crystal axes: (cart. coord. in units of alat)
               a(1) = (   1.000000   0.000000   0.000000 )  
               a(2) = (  -0.500000   0.866025   0.000000 )  
               a(3) = (   0.000000   0.000000   5.104465 )  

     reciprocal axes: (cart. coord. in units 2 pi/alat)
               b(1) = (  1.000000  0.577350  0.000000 )  
               b(2) = (  0.000000  1.154701  0.000000 )  
               b(3) = (  0.000000  0.000000  0.195907 )  


     PseudoPot. # 1 for Mo read from file:
     ./Mo_RL_withPS_PZ.UPF
     MD5 check sum: 75fa0bd84f1d166fc7323d3ac6c2f396
     Pseudo is Norm-conserving + core correction, Zval = 14.0
     Generated using "atomic" code by A. Dal Corso  (Quantum ESPRESSO distribution)
     Using radial grid of 1229 points,  8 beta functions with: 
                l(1) =   0
                l(2) =   0
                l(3) =   1
                l(4) =   1
                l(5) =   2
                l(6) =   2
                l(7) =   2
                l(8) =   2

     PseudoPot. # 2 for  S read from file:
     ./S.pz-hgh.UPF
     MD5 check sum: fb24c143a2a3ea3aba309d3cb9e9e6ec
     Pseudo is Norm-conserving, Zval =  6.0
     Generated in analytical, separable form
     Using radial grid of 1151 points,  3 beta functions with: 
                l(1) =   0
                l(2) =   0
                l(3) =   1

     atomic species   valence    mass     pseudopotential
        Mo            14.00    95.94000     Mo( 1.00)
        S              6.00    32.06500      S( 1.00)

     12 Sym. Ops. (no inversion) found


                                    s                        frac. trans.

      isym =  1     identity                                     

 cryst.   s( 1) = (     1          0          0      )
                  (     0          1          0      )
                  (     0          0          1      )

 cart.    s( 1) = (  1.0000000  0.0000000  0.0000000 )
                  (  0.0000000  1.0000000  0.0000000 )
                  (  0.0000000  0.0000000  1.0000000 )


      isym =  2     180 deg rotation - cart. axis [0,1,0]        

 cryst.   s( 2) = (    -1          0          0      )
                  (     1          1          0      )
                  (     0          0         -1      )

 cart.    s( 2) = ( -1.0000000  0.0000000  0.0000000 )
                  (  0.0000000  1.0000000  0.0000000 )
                  (  0.0000000  0.0000000 -1.0000000 )


      isym =  3     120 deg rotation - cryst. axis [0,0,1]       

 cryst.   s( 3) = (     0          1          0      )
                  (    -1         -1          0      )
                  (     0          0          1      )

 cart.    s( 3) = ( -0.5000000 -0.8660254  0.0000000 )
                  (  0.8660254 -0.5000000  0.0000000 )
                  (  0.0000000  0.0000000  1.0000000 )


      isym =  4     120 deg rotation - cryst. axis [0,0,-1]      

 cryst.   s( 4) = (    -1         -1          0      )
                  (     1          0          0      )
                  (     0          0          1      )

 cart.    s( 4) = ( -0.5000000  0.8660254  0.0000000 )
                  ( -0.8660254 -0.5000000  0.0000000 )
                  (  0.0000000  0.0000000  1.0000000 )


      isym =  5     180 deg rotation - cryst. axis [1,-1,0]      

 cryst.   s( 5) = (     0         -1          0      )
                  (    -1          0          0      )
                  (     0          0         -1      )

 cart.    s( 5) = (  0.5000000 -0.8660254  0.0000000 )
                  ( -0.8660254 -0.5000000  0.0000000 )
                  (  0.0000000  0.0000000 -1.0000000 )


      isym =  6     180 deg rotation - cryst. axis [2,1,0]       

 cryst.   s( 6) = (     1          1          0      )
                  (     0         -1          0      )
                  (     0          0         -1      )

 cart.    s( 6) = (  0.5000000  0.8660254  0.0000000 )
                  (  0.8660254 -0.5000000  0.0000000 )
                  (  0.0000000  0.0000000 -1.0000000 )


      isym =  7     inv. 180 deg rotation - cart. axis [0,0,1]   

 cryst.   s( 7) = (     1          0          0      )
                  (     0          1          0      )
                  (     0          0         -1      )

 cart.    s( 7) = (  1.0000000  0.0000000  0.0000000 )
                  (  0.0000000  1.0000000  0.0000000 )
                  (  0.0000000  0.0000000 -1.0000000 )


      isym =  8     inv. 180 deg rotation - cart. axis [1,0,0]   

 cryst.   s( 8) = (    -1          0          0      )
                  (     1          1          0      )
                  (     0          0          1      )

 cart.    s( 8) = ( -1.0000000  0.0000000  0.0000000 )
                  (  0.0000000  1.0000000  0.0000000 )
                  (  0.0000000  0.0000000  1.0000000 )


      isym =  9     inv.  60 deg rotation - cryst. axis [0,0,1]  

 cryst.   s( 9) = (    -1         -1          0      )
                  (     1          0          0      )
                  (     0          0         -1      )

 cart.    s( 9) = ( -0.5000000  0.8660254  0.0000000 )
                  ( -0.8660254 -0.5000000  0.0000000 )
                  (  0.0000000  0.0000000 -1.0000000 )


      isym = 10     inv.  60 deg rotation - cryst. axis [0,0,-1] 

 cryst.   s(10) = (     0          1          0      )
                  (    -1         -1          0      )
                  (     0          0         -1      )

 cart.    s(10) = ( -0.5000000 -0.8660254  0.0000000 )
                  (  0.8660254 -0.5000000  0.0000000 )
                  (  0.0000000  0.0000000 -1.0000000 )


      isym = 11     inv. 180 deg rotation - cryst. axis [0,1,0]  

 cryst.   s(11) = (     1          1          0      )
                  (     0         -1          0      )
                  (     0          0          1      )

 cart.    s(11) = (  0.5000000  0.8660254  0.0000000 )
                  (  0.8660254 -0.5000000  0.0000000 )
                  (  0.0000000  0.0000000  1.0000000 )


      isym = 12     inv. 180 deg rotation - cryst. axis [1,1,0]  

 cryst.   s(12) = (     0         -1          0      )
                  (    -1          0          0      )
                  (     0          0          1      )

 cart.    s(12) = (  0.5000000 -0.8660254  0.0000000 )
                  ( -0.8660254 -0.5000000  0.0000000 )
                  (  0.0000000  0.0000000  1.0000000 )


     double point group D_3h (-62m)
     there are  9 classes and  3 irreducible representations
     the character table:

       E     -E    2C3   -2C3   3C2'  s_h  2S3   -2S3   3s_v
                               -3C2' -s_h'             -3s_v
G_7    2.00 -2.00  1.00 -1.00  0.00  0.00  1.73 -1.73  0.00
G_8    2.00 -2.00  1.00 -1.00  0.00  0.00 -1.73  1.73  0.00
G_9    2.00 -2.00 -2.00  2.00  0.00  0.00  0.00  0.00  0.00

     the symmetry operations in each class:
     E             1
      3C2'-3C2'    2   -6   -5   -2    5    6
     2C3           3    4
      3s_v-3s_v    7   -7
      3s_v-3s_v    8   -8   11  -12  -11   12
     2S3           9   10
     -E           -1
     -2C3         -3   -4
     -2S3         -9  -10

   Cartesian axes

     site n.     atom                  positions (alat units)
         1           Mo  tau(   1) = (   0.0000000   0.5773503   0.0000000  )
         2           S   tau(   2) = (   0.5000000   0.2886751   0.4991315  )
         3           S   tau(   3) = (   0.5000000   0.2886751  -0.4991315  )

   Crystallographic axes

     site n.     atom                  positions (cryst. coord.)
         1           Mo  tau(   1) = (  0.3333333  0.6666667  0.0000000  )
         2           S   tau(   2) = (  0.6666667  0.3333333  0.0977833  )
         3           S   tau(   3) = (  0.6666667  0.3333333 -0.0977833  )

     number of k points=     3
                       cart. coord. in units 2pi/alat
        k(    1) = (   0.0000000   0.0000000   0.0000000), wk =   0.1111111
        k(    2) = (   0.0000000   0.3849002   0.0000000), wk =   0.6666667
        k(    3) = (   0.3333333   0.5773503   0.0000000), wk =   0.2222222

                       cryst. coord.
        k(    1) = (   0.0000000   0.0000000   0.0000000), wk =   0.1111111
        k(    2) = (   0.0000000   0.3333333   0.0000000), wk =   0.6666667
        k(    3) = (   0.3333333   0.3333333   0.0000000), wk =   0.2222222

     Dense  grid:    56613 G-vectors     FFT dimensions: (  30,  30, 150)

     Largest allocated arrays     est. size (Mb)     dimensions
        Kohn-Sham Wavefunctions         5.62 Mb     (   14174,   26)
        NL pseudopotentials             4.11 Mb     (    7087,   38)
        Each V/rho on FFT grid          2.06 Mb     (  135000)
        Each G-vector array             0.43 Mb     (   56613)
        G-vector shells                 0.02 Mb     (    2835)
     Largest temporary arrays     est. size (Mb)     dimensions
        Auxiliary wavefunctions        22.49 Mb     (   14174,  104)
        Each subspace H/S matrix        0.17 Mb     (     104,  104)
        Each <psi_i|beta_j> matrix      0.03 Mb     (      38,   2,   26)
        Arrays for rho mixing          16.48 Mb     (  135000,    8)

     Check: negative/imaginary core charge=   -0.000110    0.000000

     Initial potential from superposition of free atoms
     Check: negative starting charge=   -0.001167

     starting charge   23.99900, renormalised to   26.00000

     negative rho (up, down):  1.264E-03 0.000E+00
     Starting wfc are   56 randomized atomic wfcs

     total cpu time spent up to now is        4.4 secs

     per-process dynamical memory:    90.0 Mb

     Self-consistent Calculation

     iteration #  1     ecut=    60.00 Ry     beta=0.70
     Davidson diagonalization with overlap
     ethr =  1.00E-02,  avg # of iterations =  5.0

     total cpu time spent up to now is        9.5 secs

     total energy              =    -222.12971549 Ry
     Harris-Foulkes estimate   =    -239.96956960 Ry
     estimated scf accuracy    <      20.49422124 Ry

     iteration #  2     ecut=    60.00 Ry     beta=0.70
     Davidson diagonalization with overlap
     ethr =  1.00E-02,  avg # of iterations = 11.3

     total cpu time spent up to now is       23.7 secs

     total energy              =    -231.74528351 Ry
     Harris-Foulkes estimate   =    -262.22578992 Ry
     estimated scf accuracy    <      77.00104248 Ry

     iteration #  3     ecut=    60.00 Ry     beta=0.70
     Davidson diagonalization with overlap
     ethr =  1.00E-02,  avg # of iterations =  5.3

     total cpu time spent up to now is       32.4 secs

     total energy              =    -237.61606949 Ry
     Harris-Foulkes estimate   =    -238.86657298 Ry
     estimated scf accuracy    <       4.29287100 Ry

     iteration #  4     ecut=    60.00 Ry     beta=0.70
     Davidson diagonalization with overlap
     ethr =  1.00E-02,  avg # of iterations =  2.3

     total cpu time spent up to now is       36.8 secs

     total energy              =    -237.14466533 Ry
     Harris-Foulkes estimate   =    -237.75962550 Ry
     estimated scf accuracy    <       1.87385029 Ry

     iteration #  5     ecut=    60.00 Ry     beta=0.70
     Davidson diagonalization with overlap
     ethr =  7.21E-03,  avg # of iterations =  2.0

     total cpu time spent up to now is       41.0 secs

     total energy              =    -237.22775664 Ry
     Harris-Foulkes estimate   =    -237.27050938 Ry
     estimated scf accuracy    <       0.52655232 Ry

     iteration #  6     ecut=    60.00 Ry     beta=0.70
     Davidson diagonalization with overlap
     ethr =  2.03E-03,  avg # of iterations =  1.7

     total cpu time spent up to now is       45.3 secs

     total energy              =    -237.18817697 Ry
     Harris-Foulkes estimate   =    -237.25057224 Ry
     estimated scf accuracy    <       0.40729044 Ry

     iteration #  7     ecut=    60.00 Ry     beta=0.70
     Davidson diagonalization with overlap
     ethr =  1.57E-03,  avg # of iterations =  2.3

     total cpu time spent up to now is       49.6 secs

     total energy              =    -237.20948677 Ry
     Harris-Foulkes estimate   =    -237.27715998 Ry
     estimated scf accuracy    <       0.22638456 Ry

     iteration #  8     ecut=    60.00 Ry     beta=0.70
     Davidson diagonalization with overlap
     ethr =  8.71E-04,  avg # of iterations =  1.7

     total cpu time spent up to now is       53.8 secs

     total energy              =    -237.17291151 Ry
     Harris-Foulkes estimate   =    -237.21709371 Ry
     estimated scf accuracy    <       0.10292611 Ry

     iteration #  9     ecut=    60.00 Ry     beta=0.70
     Davidson diagonalization with overlap
     ethr =  3.96E-04,  avg # of iterations =  4.3

     negative rho (up, down):  5.966E-07 0.000E+00

     total cpu time spent up to now is       59.5 secs

     total energy              =    -237.28994098 Ry
     Harris-Foulkes estimate   =    -237.28721314 Ry
     estimated scf accuracy    <       0.03802556 Ry

     iteration # 10     ecut=    60.00 Ry     beta=0.70
     Davidson diagonalization with overlap
     ethr =  1.46E-04,  avg # of iterations =  1.3

     negative rho (up, down):  3.598E-04 0.000E+00

     total cpu time spent up to now is       63.6 secs

     total energy              =    -237.27929818 Ry
     Harris-Foulkes estimate   =    -237.29064251 Ry
     estimated scf accuracy    <       0.04836539 Ry

     iteration # 11     ecut=    60.00 Ry     beta=0.70
     Davidson diagonalization with overlap
     ethr =  1.46E-04,  avg # of iterations =  2.0

     negative rho (up, down):  2.263E-04 0.000E+00

     total cpu time spent up to now is       68.0 secs

     total energy              =    -237.28069632 Ry
     Harris-Foulkes estimate   =    -237.28142358 Ry
     estimated scf accuracy    <       0.01701069 Ry

     iteration # 12     ecut=    60.00 Ry     beta=0.70
     Davidson diagonalization with overlap
     ethr =  6.54E-05,  avg # of iterations =  1.0

     total cpu time spent up to now is       72.1 secs

     total energy              =    -237.27856924 Ry
     Harris-Foulkes estimate   =    -237.28094386 Ry
     estimated scf accuracy    <       0.01353807 Ry

     iteration # 13     ecut=    60.00 Ry     beta=0.70
     Davidson diagonalization with overlap
     ethr =  5.21E-05,  avg # of iterations =  2.7

     total cpu time spent up to now is       77.1 secs

     total energy              =    -237.27940283 Ry
     Harris-Foulkes estimate   =    -237.27945854 Ry
     estimated scf accuracy    <       0.00236690 Ry

     iteration # 14     ecut=    60.00 Ry     beta=0.70
     Davidson diagonalization with overlap
     ethr =  9.10E-06,  avg # of iterations =  4.0

     total cpu time spent up to now is       82.2 secs

     total energy              =    -237.27987279 Ry
     Harris-Foulkes estimate   =    -237.27994745 Ry
     estimated scf accuracy    <       0.00040914 Ry

     iteration # 15     ecut=    60.00 Ry     beta=0.70
     Davidson diagonalization with overlap
     ethr =  1.57E-06,  avg # of iterations =  4.3

     total cpu time spent up to now is       87.6 secs

     total energy              =    -237.27991764 Ry
     Harris-Foulkes estimate   =    -237.27995107 Ry
     estimated scf accuracy    <       0.00022036 Ry

     iteration # 16     ecut=    60.00 Ry     beta=0.70
     Davidson diagonalization with overlap
     ethr =  8.48E-07,  avg # of iterations =  1.0

     negative rho (up, down):  1.771E-06 0.000E+00

     total cpu time spent up to now is       91.7 secs

     total energy              =    -237.27987138 Ry
     Harris-Foulkes estimate   =    -237.27992380 Ry
     estimated scf accuracy    <       0.00014772 Ry

     iteration # 17     ecut=    60.00 Ry     beta=0.70
     Davidson diagonalization with overlap
     ethr =  5.68E-07,  avg # of iterations =  3.0

     negative rho (up, down):  1.011E-04 0.000E+00

     total cpu time spent up to now is       96.8 secs

     total energy              =    -237.27993083 Ry
     Harris-Foulkes estimate   =    -237.27990556 Ry
     estimated scf accuracy    <       0.00012752 Ry

     iteration # 18     ecut=    60.00 Ry     beta=0.70
     Davidson diagonalization with overlap
     ethr =  4.90E-07,  avg # of iterations =  3.3

     negative rho (up, down):  6.531E-06 0.000E+00

     total cpu time spent up to now is      102.6 secs

     total energy              =    -237.27990366 Ry
     Harris-Foulkes estimate   =    -237.27997218 Ry
     estimated scf accuracy    <       0.00064559 Ry

     iteration # 19     ecut=    60.00 Ry     beta=0.70
     Davidson diagonalization with overlap
     ethr =  4.90E-07,  avg # of iterations =  2.7

     total cpu time spent up to now is      107.5 secs

     total energy              =    -237.27987900 Ry
     Harris-Foulkes estimate   =    -237.27991421 Ry
     estimated scf accuracy    <       0.00027088 Ry

     iteration # 20     ecut=    60.00 Ry     beta=0.70
     Davidson diagonalization with overlap
     ethr =  4.90E-07,  avg # of iterations =  2.3

     negative rho (up, down):  5.614E-07 0.000E+00

     total cpu time spent up to now is      111.8 secs

     total energy              =    -237.27987492 Ry
     Harris-Foulkes estimate   =    -237.27988588 Ry
     estimated scf accuracy    <       0.00011075 Ry

     iteration # 21     ecut=    60.00 Ry     beta=0.70
     Davidson diagonalization with overlap
     ethr =  4.26E-07,  avg # of iterations =  2.0

     negative rho (up, down):  2.312E-07 0.000E+00

     total cpu time spent up to now is      116.0 secs

     total energy              =    -237.27987660 Ry
     Harris-Foulkes estimate   =    -237.27988115 Ry
     estimated scf accuracy    <       0.00003676 Ry

     iteration # 22     ecut=    60.00 Ry     beta=0.70
     Davidson diagonalization with overlap
     ethr =  1.41E-07,  avg # of iterations =  4.0

     total cpu time spent up to now is      121.2 secs

     total energy              =    -237.27988095 Ry
     Harris-Foulkes estimate   =    -237.27988174 Ry
     estimated scf accuracy    <       0.00000211 Ry

     iteration # 23     ecut=    60.00 Ry     beta=0.70
     Davidson diagonalization with overlap
     ethr =  8.12E-09,  avg # of iterations =  3.7

     total cpu time spent up to now is      127.1 secs

     total energy              =    -237.27988174 Ry
     Harris-Foulkes estimate   =    -237.27988200 Ry
     estimated scf accuracy    <       0.00000147 Ry

     iteration # 24     ecut=    60.00 Ry     beta=0.70
     Davidson diagonalization with overlap
     ethr =  5.64E-09,  avg # of iterations =  1.7

     total cpu time spent up to now is      131.4 secs

     total energy              =    -237.27988167 Ry
     Harris-Foulkes estimate   =    -237.27988180 Ry
     estimated scf accuracy    <       0.00000044 Ry

     iteration # 25     ecut=    60.00 Ry     beta=0.70
     Davidson diagonalization with overlap
     ethr =  1.69E-09,  avg # of iterations =  4.0

     total cpu time spent up to now is      136.9 secs

     total energy              =    -237.27988180 Ry
     Harris-Foulkes estimate   =    -237.27988182 Ry
     estimated scf accuracy    <       0.00000013 Ry

     iteration # 26     ecut=    60.00 Ry     beta=0.70
     Davidson diagonalization with overlap
     ethr =  5.07E-10,  avg # of iterations =  1.7

     total cpu time spent up to now is      141.1 secs

     total energy              =    -237.27988180 Ry
     Harris-Foulkes estimate   =    -237.27988180 Ry
     estimated scf accuracy    <       0.00000005 Ry

     iteration # 27     ecut=    60.00 Ry     beta=0.70
     Davidson diagonalization with overlap
     ethr =  1.83E-10,  avg # of iterations =  1.7

     total cpu time spent up to now is      145.1 secs

     total energy              =    -237.27988180 Ry
     Harris-Foulkes estimate   =    -237.27988180 Ry
     estimated scf accuracy    <       0.00000003 Ry

     iteration # 28     ecut=    60.00 Ry     beta=0.70
     Davidson diagonalization with overlap
     ethr =  9.79E-11,  avg # of iterations =  3.7

     total cpu time spent up to now is      150.6 secs

     total energy              =    -237.27988180 Ry
     Harris-Foulkes estimate   =    -237.27988180 Ry
     estimated scf accuracy    <          8.4E-10 Ry

     iteration # 29     ecut=    60.00 Ry     beta=0.70
     Davidson diagonalization with overlap
     ethr =  3.23E-12,  avg # of iterations =  3.3

     total cpu time spent up to now is      155.0 secs

     total energy              =    -237.27988180 Ry
     Harris-Foulkes estimate   =    -237.27988180 Ry
     estimated scf accuracy    <          5.4E-10 Ry

     iteration # 30     ecut=    60.00 Ry     beta=0.70
     Davidson diagonalization with overlap
     ethr =  2.08E-12,  avg # of iterations =  2.7

     total cpu time spent up to now is      159.4 secs

     total energy              =    -237.27988180 Ry
     Harris-Foulkes estimate   =    -237.27988180 Ry
     estimated scf accuracy    <          9.5E-11 Ry

     iteration # 31     ecut=    60.00 Ry     beta=0.70
     Davidson diagonalization with overlap
     ethr =  3.67E-13,  avg # of iterations =  4.3

     total cpu time spent up to now is      165.2 secs

     total energy              =    -237.27988180 Ry
     Harris-Foulkes estimate   =    -237.27988180 Ry
     estimated scf accuracy    <          1.1E-10 Ry

     iteration # 32     ecut=    60.00 Ry     beta=0.70
     Davidson diagonalization with overlap
     ethr =  3.67E-13,  avg # of iterations =  1.0

     total cpu time spent up to now is      169.1 secs

     total energy              =    -237.27988180 Ry
     Harris-Foulkes estimate   =    -237.27988180 Ry
     estimated scf accuracy    <          1.4E-10 Ry

     iteration # 33     ecut=    60.00 Ry     beta=0.70
     Davidson diagonalization with overlap
     ethr =  3.67E-13,  avg # of iterations =  1.0

     total cpu time spent up to now is      173.1 secs

     total energy              =    -237.27988180 Ry
     Harris-Foulkes estimate   =    -237.27988180 Ry
     estimated scf accuracy    <          1.7E-10 Ry

     iteration # 34     ecut=    60.00 Ry     beta=0.70
     Davidson diagonalization with overlap
     ethr =  3.67E-13,  avg # of iterations =  1.3

     total cpu time spent up to now is      177.0 secs

     total energy              =    -237.27988180 Ry
     Harris-Foulkes estimate   =    -237.27988180 Ry
     estimated scf accuracy    <          8.8E-11 Ry

     iteration # 35     ecut=    60.00 Ry     beta=0.70
     Davidson diagonalization with overlap
     ethr =  3.40E-13,  avg # of iterations =  3.0

     total cpu time spent up to now is      181.6 secs

     total energy              =    -237.27988180 Ry
     Harris-Foulkes estimate   =    -237.27988180 Ry
     estimated scf accuracy    <          8.5E-12 Ry

     iteration # 36     ecut=    60.00 Ry     beta=0.70
     Davidson diagonalization with overlap
     ethr =  1.00E-13,  avg # of iterations =  2.0

     total cpu time spent up to now is      185.6 secs

     End of self-consistent calculation

          k = 0.0000 0.0000 0.0000 (  7087 PWs)   bands (ev):

   -59.8563 -59.8563 -35.9006 -35.9006 -33.4873 -33.4873 -33.2110 -33.2110
   -13.9352 -13.9352 -12.5704 -12.5704  -5.4681  -5.4681  -2.2466  -2.2466
    -2.1573  -2.1573  -1.5728  -1.5728  -1.0814  -1.0814  -1.0290  -1.0290
     0.2432   0.2432

     occupation numbers 
     1.0000   1.0000   1.0000   1.0000   1.0000   1.0000   1.0000   1.0000
     1.0000   1.0000   1.0000   1.0000   1.0000   1.0000   1.0000   1.0000
     1.0000   1.0000   1.0000   1.0000   1.0000   1.0000   1.0000   1.0000
     1.0000   1.0000

          k = 0.0000 0.3849 0.0000 (  7036 PWs)   bands (ev):

   -59.8127 -59.8127 -35.9994 -35.9994 -33.5864 -33.5864 -33.3896 -33.3896
   -12.4733 -12.4733 -11.9788 -11.9788  -5.0944  -5.0944  -4.0431  -4.0431
    -3.5843  -3.5843  -2.5147  -2.5147  -1.3237  -1.3237  -0.8681  -0.8681
    -0.6401  -0.6401

     occupation numbers 
     1.0000   1.0000   1.0000   1.0000   1.0000   1.0000   1.0000   1.0000
     1.0000   1.0000   1.0000   1.0000   1.0000   1.0000   1.0000   1.0000
     1.0000   1.0000   1.0000   1.0000   1.0000   1.0000   1.0000   1.0000
     1.0000   1.0000

          k = 0.3333 0.5774 0.0000 (  7047 PWs)   bands (ev):

   -59.7932 -59.7932 -36.0630 -36.0329 -33.6086 -33.5494 -33.5451 -33.5286
   -11.5565 -11.5455 -11.5410 -11.4712  -5.3585  -5.3364  -4.4428  -4.4424
    -3.9760  -3.8485  -3.2161  -3.1712  -2.6616  -2.6589  -1.8465  -1.8234
     0.3962   0.5241

     occupation numbers 
     1.0000   1.0000   1.0000   1.0000   1.0000   1.0000   1.0000   1.0000
     1.0000   1.0000   1.0000   1.0000   1.0000   1.0000   1.0000   1.0000
     1.0000   1.0000   1.0000   1.0000   1.0000   1.0000   1.0000   1.0000
     1.0000   1.0000

     highest occupied level (ev):     0.5241

!    total energy              =    -237.27988180 Ry
     Harris-Foulkes estimate   =    -237.27988180 Ry
     estimated scf accuracy    <          3.3E-13 Ry

     The total energy is the sum of the following terms:

     one-electron contribution =    -816.86659944 Ry
     hartree contribution      =     410.60069240 Ry
     xc contribution           =     -86.43661265 Ry
     ewald contribution        =     255.42263788 Ry

     convergence has been achieved in  36 iterations

     Writing output data file mos2.save
 
     init_run     :      4.16s CPU      4.19s WALL (       1 calls)
     electrons    :    181.30s CPU    181.28s WALL (       1 calls)

     Called by init_run:
     wfcinit      :      3.44s CPU      3.45s WALL (       1 calls)
     potinit      :      0.13s CPU      0.14s WALL (       1 calls)

     Called by electrons:
     c_bands      :    156.70s CPU    156.66s WALL (      36 calls)
     sum_band     :     20.60s CPU     20.58s WALL (      36 calls)
     v_of_rho     :      0.53s CPU      0.55s WALL (      37 calls)
     v_h          :      0.22s CPU      0.23s WALL (      37 calls)
     v_xc         :      0.31s CPU      0.33s WALL (      37 calls)
     mix_rho      :      3.16s CPU      3.18s WALL (      36 calls)

     Called by c_bands:
     init_us_2    :      0.83s CPU      0.84s WALL (     219 calls)
     cegterg      :    150.20s CPU    150.16s WALL (     108 calls)

     Called by sum_band:

     Called by *egterg:
     h_psi        :    107.71s CPU    107.69s WALL (     425 calls)
     g_psi        :      1.14s CPU      1.17s WALL (     314 calls)
     cdiaghg      :      0.96s CPU      0.96s WALL (     422 calls)
     cegterg:over :     18.17s CPU     18.16s WALL (     314 calls)
     cegterg:upda :     10.51s CPU     10.48s WALL (     314 calls)
     cegterg:last :      7.04s CPU      7.04s WALL (     115 calls)

     Called by h_psi:
     h_psi:vloc   :     88.44s CPU     88.40s WALL (     425 calls)
     h_psi:vnl    :     19.02s CPU     19.01s WALL (     425 calls)
     add_vuspsi   :      9.08s CPU      9.04s WALL (     425 calls)

     General routines
     calbec       :      9.94s CPU      9.97s WALL (     425 calls)
     fft          :      1.71s CPU      1.75s WALL (     367 calls)
     fftw         :     96.98s CPU     96.80s WALL (   34520 calls)
 
     Parallel routines
     fft_scatter  :      5.37s CPU      5.16s WALL (   34887 calls)
 
     PWSCF        :  3m 5.77s CPU     3m 5.78s WALL

 
   This run was terminated on:  16:30:52  18Jul2015            

=------------------------------------------------------------------------------=
   JOB DONE.
=------------------------------------------------------------------------------=
