
     Program PWSCF v.5.0.1 starts on 31Mar2018 at  0: 8: 3 

     This program is part of the open-source Quantum ESPRESSO suite
     for quantum simulation of materials; please cite
         "P. Giannozzi et al., J. Phys.:Condens. Matter 21 395502 (2009);
          URL http://www.quantum-espresso.org", 
     in publications or presentations arising from this work. More details at
     http://www.quantum-espresso.org/quote.php

     Parallel version (MPI), running on     1 processors

     Current dimensions of program PWSCF are:
     Max number of different atomic species (ntypx) = 10
     Max number of k-points (npk) =  40000
     Max angular momentum in pseudopotentials (lmaxx) =  3
     Waiting for input...
     Reading input from standard input

     IMPORTANT: XC functional enforced from input :
     Exchange-correlation      = PBE0 ( 6 4 8 4 0)
     EXX-fraction              =        0.25
     Any further DFT definition will be discarded
     Please, verify this is what you really want

               file Si.pbe-mt_fhi.UPF: wavefunction(s)  4f renormalized

     Subspace diagonalization in iterative solution of the eigenvalue problem:
     a serial algorithm will be used

 
     G-vector sticks info
     --------------------
     sticks:   dense  smooth     PW     G-vecs:    dense   smooth      PW
     Sum         295     295     91                 3287     3287     609
 


     bravais-lattice index     =            2
     lattice parameter (alat)  =      10.2625  a.u.
     unit-cell volume          =     270.2117 (a.u.)^3
     number of atoms/cell      =            2
     number of atomic types    =            1
     number of electrons       =         8.00
     number of Kohn-Sham states=            8
     kinetic-energy cutoff     =      20.0000  Ry
     charge density cutoff     =      80.0000  Ry
     convergence threshold     =      1.0E-06
     mixing beta               =       0.7000
     number of iterations used =            8  plain     mixing
     Exchange-correlation      = PBE0 ( 6 4 8 4 0)
     EXX-fraction              =        0.25

     celldm(1)=  10.262536  celldm(2)=   0.000000  celldm(3)=   0.000000
     celldm(4)=   0.000000  celldm(5)=   0.000000  celldm(6)=   0.000000

     crystal axes: (cart. coord. in units of alat)
               a(1) = (  -0.500000   0.000000   0.500000 )  
               a(2) = (   0.000000   0.500000   0.500000 )  
               a(3) = (  -0.500000   0.500000   0.000000 )  

     reciprocal axes: (cart. coord. in units 2 pi/alat)
               b(1) = ( -1.000000 -1.000000  1.000000 )  
               b(2) = (  1.000000  1.000000  1.000000 )  
               b(3) = ( -1.000000  1.000000 -1.000000 )  


     PseudoPot. # 1 for Si read from file:
     ./Si.pbe-mt_fhi.UPF
     MD5 check sum: 259057c2adf9952f9ced37ae3d9e311d
     Pseudo is Norm-conserving, Zval =  4.0
     Generated using FHI98PP, converted with fhi2upf.x v.5.0.2
     Using radial grid of  495 points,  3 beta functions with: 
                l(1) =   0
                l(2) =   1
                l(3) =   3

     atomic species   valence    mass     pseudopotential
        Si             4.00     1.00000     Si( 1.00)

     24 Sym. Ops. (no inversion) found



   Cartesian axes

     site n.     atom                  positions (alat units)
         1           Si  tau(   1) = (   0.0000000   0.0000000   0.0000000  )
         2           Si  tau(   2) = (  -0.2500000   0.2500000   0.2500000  )

     number of k points=     3
                       cart. coord. in units 2pi/alat
        k(    1) = (   0.0000000   0.0000000   0.0000000), wk =   0.2500000
        k(    2) = (   0.5000000  -0.5000000   0.5000000), wk =   1.0000000
        k(    3) = (   0.0000000  -1.0000000   0.0000000), wk =   0.7500000

     Dense  grid:     3287 G-vectors     FFT dimensions: (  24,  24,  24)

     Largest allocated arrays     est. size (Mb)     dimensions
        Kohn-Sham Wavefunctions         0.05 Mb     (    412,    8)
        NL pseudopotentials             0.14 Mb     (    412,   22)
        Each V/rho on FFT grid          0.21 Mb     (  13824)
        Each G-vector array             0.03 Mb     (   3287)
        G-vector shells                 0.00 Mb     (     74)
     Largest temporary arrays     est. size (Mb)     dimensions
        Auxiliary wavefunctions         0.20 Mb     (    412,   32)
        Each subspace H/S matrix        0.02 Mb     (  32,  32)
        Each <psi_i|beta_j> matrix      0.00 Mb     (     22,    8)
        Arrays for rho mixing           1.69 Mb     (  13824,   8)

     Initial potential from superposition of free atoms

     starting charge    7.99859, renormalised to    8.00000
     Starting wfc are   32 randomized atomic wfcs

     total cpu time spent up to now is        0.1 secs

     per-process dynamical memory:     7.2 Mb

     Self-consistent Calculation

     iteration #  1     ecut=    20.00 Ry     beta=0.70
     Davidson diagonalization with overlap
     ethr =  1.00E-02,  avg # of iterations =  2.3

     total cpu time spent up to now is        0.1 secs

     total energy              =     -15.56328162 Ry
     Harris-Foulkes estimate   =     -15.59006203 Ry
     estimated scf accuracy    <       0.10732190 Ry

     iteration #  2     ecut=    20.00 Ry     beta=0.70
     Davidson diagonalization with overlap
     ethr =  1.34E-03,  avg # of iterations =  1.0

     total cpu time spent up to now is        0.1 secs

     total energy              =     -15.56779521 Ry
     Harris-Foulkes estimate   =     -15.56769621 Ry
     estimated scf accuracy    <       0.00469361 Ry

     iteration #  3     ecut=    20.00 Ry     beta=0.70
     Davidson diagonalization with overlap
     ethr =  5.87E-05,  avg # of iterations =  1.7

     total cpu time spent up to now is        0.1 secs

     total energy              =     -15.56815286 Ry
     Harris-Foulkes estimate   =     -15.56812679 Ry
     estimated scf accuracy    <       0.00007803 Ry

     iteration #  4     ecut=    20.00 Ry     beta=0.70
     Davidson diagonalization with overlap
     ethr =  9.75E-07,  avg # of iterations =  2.3

     total cpu time spent up to now is        0.2 secs

     total energy              =     -15.56817603 Ry
     Harris-Foulkes estimate   =     -15.56817563 Ry
     estimated scf accuracy    <       0.00000107 Ry

     iteration #  5     ecut=    20.00 Ry     beta=0.70
     Davidson diagonalization with overlap
     ethr =  1.34E-08,  avg # of iterations =  2.0

     total cpu time spent up to now is        0.2 secs

     End of self-consistent calculation

          k = 0.0000 0.0000 0.0000 (   411 PWs)   bands (ev):

    -5.4927   6.5278   6.5278   6.5278   8.9822   8.9822   8.9822   9.8783

          k = 0.5000-0.5000 0.5000 (   410 PWs)   bands (ev):

    -3.1351  -0.5117   5.2933   5.2933   8.0354   9.7582   9.7582  14.1788

          k = 0.0000-1.0000 0.0000 (   412 PWs)   bands (ev):

    -1.3193  -1.3189   3.6034   3.6034   7.1497   7.1498  16.5560  16.5561

     highest occupied, lowest unoccupied level (ev):     6.5278    7.1497
k=   1 jbnd=   1 ibnd=   1 iqi=   1 MATEL1: 0.7946755
k=   1 jbnd=   1 ibnd=   2 iqi=   1 MATEL1: 0.1268180
k=   1 jbnd=   1 ibnd=   3 iqi=   1 MATEL1: 0.1268180
k=   1 jbnd=   1 ibnd=   4 iqi=   1 MATEL1: 0.1268180
k=   1 jbnd=   2 ibnd=   1 iqi=   1 MATEL1: 0.1268180
k=   1 jbnd=   2 ibnd=   2 iqi=   1 MATEL1: 0.9051606
k=   1 jbnd=   2 ibnd=   3 iqi=   1 MATEL1: 0.0805517
k=   1 jbnd=   2 ibnd=   4 iqi=   1 MATEL1: 0.0826140
k=   1 jbnd=   3 ibnd=   1 iqi=   1 MATEL1: 0.1268180
k=   1 jbnd=   3 ibnd=   2 iqi=   1 MATEL1: 0.0805517
k=   1 jbnd=   3 ibnd=   3 iqi=   1 MATEL1: 0.9152628
k=   1 jbnd=   3 ibnd=   4 iqi=   1 MATEL1: 0.0725114
k=   1 jbnd=   4 ibnd=   1 iqi=   1 MATEL1: 0.1268180
k=   1 jbnd=   4 ibnd=   2 iqi=   1 MATEL1: 0.0826140
k=   1 jbnd=   4 ibnd=   3 iqi=   1 MATEL1: 0.0725114
k=   1 jbnd=   4 ibnd=   4 iqi=   1 MATEL1: 0.9132000
k=   1 jbnd=   5 ibnd=   1 iqi=   1 MATEL1: 0.0993947
k=   1 jbnd=   5 ibnd=   2 iqi=   1 MATEL1: 0.0563589
k=   1 jbnd=   5 ibnd=   3 iqi=   1 MATEL1: 0.0693201
k=   1 jbnd=   5 ibnd=   4 iqi=   1 MATEL1: 0.0341744
k=   1 jbnd=   6 ibnd=   1 iqi=   1 MATEL1: 0.0993945
k=   1 jbnd=   6 ibnd=   2 iqi=   1 MATEL1: 0.0621856
k=   1 jbnd=   6 ibnd=   3 iqi=   1 MATEL1: 0.0466096
k=   1 jbnd=   6 ibnd=   4 iqi=   1 MATEL1: 0.0510571
k=   1 jbnd=   7 ibnd=   1 iqi=   1 MATEL1: 0.0993943
k=   1 jbnd=   7 ibnd=   2 iqi=   1 MATEL1: 0.0413057
k=   1 jbnd=   7 ibnd=   3 iqi=   1 MATEL1: 0.0439255
k=   1 jbnd=   7 ibnd=   4 iqi=   1 MATEL1: 0.0746205
k=   1 jbnd=   8 ibnd=   1 iqi=   1 MATEL1: 0.1210323
k=   1 jbnd=   8 ibnd=   2 iqi=   1 MATEL1: 0.0605147
k=   1 jbnd=   8 ibnd=   3 iqi=   1 MATEL1: 0.0605224
k=   1 jbnd=   8 ibnd=   4 iqi=   1 MATEL1: 0.0605119
k=   2 jbnd=   1 ibnd=   1 iqi=   1 MATEL1: 0.8457709
k=   2 jbnd=   1 ibnd=   2 iqi=   1 MATEL1: 0.0474431
k=   2 jbnd=   1 ibnd=   3 iqi=   1 MATEL1: 0.1419353
k=   2 jbnd=   1 ibnd=   4 iqi=   1 MATEL1: 0.1419352
k=   2 jbnd=   2 ibnd=   1 iqi=   1 MATEL1: 0.0474431
k=   2 jbnd=   2 ibnd=   2 iqi=   1 MATEL1: 0.9182288
k=   2 jbnd=   2 ibnd=   3 iqi=   1 MATEL1: 0.0698743
k=   2 jbnd=   2 ibnd=   4 iqi=   1 MATEL1: 0.0698743
k=   2 jbnd=   3 ibnd=   1 iqi=   1 MATEL1: 0.1419353
k=   2 jbnd=   3 ibnd=   2 iqi=   1 MATEL1: 0.0698743
k=   2 jbnd=   3 ibnd=   3 iqi=   1 MATEL1: 0.8461630
k=   2 jbnd=   3 ibnd=   4 iqi=   1 MATEL1: 0.1068780
k=   2 jbnd=   4 ibnd=   1 iqi=   1 MATEL1: 0.1419352
k=   2 jbnd=   4 ibnd=   2 iqi=   1 MATEL1: 0.0698743
k=   2 jbnd=   4 ibnd=   3 iqi=   1 MATEL1: 0.1068780
k=   2 jbnd=   4 ibnd=   4 iqi=   1 MATEL1: 0.8461630
k=   2 jbnd=   5 ibnd=   1 iqi=   1 MATEL1: 0.1189833
k=   2 jbnd=   5 ibnd=   2 iqi=   1 MATEL1: 0.0710957
k=   2 jbnd=   5 ibnd=   3 iqi=   1 MATEL1: 0.0354624
k=   2 jbnd=   5 ibnd=   4 iqi=   1 MATEL1: 0.0354623
k=   2 jbnd=   6 ibnd=   1 iqi=   1 MATEL1: 0.1033667
k=   2 jbnd=   6 ibnd=   2 iqi=   1 MATEL1: 0.0338825
k=   2 jbnd=   6 ibnd=   3 iqi=   1 MATEL1: 0.0685410
k=   2 jbnd=   6 ibnd=   4 iqi=   1 MATEL1: 0.0539221
k=   2 jbnd=   7 ibnd=   1 iqi=   1 MATEL1: 0.1033687
k=   2 jbnd=   7 ibnd=   2 iqi=   1 MATEL1: 0.0338838
k=   2 jbnd=   7 ibnd=   3 iqi=   1 MATEL1: 0.0539247
k=   2 jbnd=   7 ibnd=   4 iqi=   1 MATEL1: 0.0685413
k=   2 jbnd=   8 ibnd=   1 iqi=   1 MATEL1: 0.0570427
k=   2 jbnd=   8 ibnd=   2 iqi=   1 MATEL1: 0.0304886
k=   2 jbnd=   8 ibnd=   3 iqi=   1 MATEL1: 0.0158218
k=   2 jbnd=   8 ibnd=   4 iqi=   1 MATEL1: 0.0158218
k=   3 jbnd=   1 ibnd=   1 iqi=   1 MATEL1: 0.8551268
k=   3 jbnd=   1 ibnd=   2 iqi=   1 MATEL1: 0.0792436
k=   3 jbnd=   1 ibnd=   3 iqi=   1 MATEL1: 0.1156003
k=   3 jbnd=   1 ibnd=   4 iqi=   1 MATEL1: 0.1156003
k=   3 jbnd=   2 ibnd=   1 iqi=   1 MATEL1: 0.0792436
k=   3 jbnd=   2 ibnd=   2 iqi=   1 MATEL1: 0.8551142
k=   3 jbnd=   2 ibnd=   3 iqi=   1 MATEL1: 0.1155918
k=   3 jbnd=   2 ibnd=   4 iqi=   1 MATEL1: 0.1155917
k=   3 jbnd=   3 ibnd=   1 iqi=   1 MATEL1: 0.1156003
k=   3 jbnd=   3 ibnd=   2 iqi=   1 MATEL1: 0.1155918
k=   3 jbnd=   3 ibnd=   3 iqi=   1 MATEL1: 0.8126979
k=   3 jbnd=   3 ibnd=   4 iqi=   1 MATEL1: 0.0786024
k=   3 jbnd=   4 ibnd=   1 iqi=   1 MATEL1: 0.1156003
k=   3 jbnd=   4 ibnd=   2 iqi=   1 MATEL1: 0.1155917
k=   3 jbnd=   4 ibnd=   3 iqi=   1 MATEL1: 0.0786024
k=   3 jbnd=   4 ibnd=   4 iqi=   1 MATEL1: 0.8126978
k=   3 jbnd=   5 ibnd=   1 iqi=   1 MATEL1: 0.0918275
k=   3 jbnd=   5 ibnd=   2 iqi=   1 MATEL1: 0.0633354
k=   3 jbnd=   5 ibnd=   3 iqi=   1 MATEL1: 0.0383420
k=   3 jbnd=   5 ibnd=   4 iqi=   1 MATEL1: 0.0383408
k=   3 jbnd=   6 ibnd=   1 iqi=   1 MATEL1: 0.0633366
k=   3 jbnd=   6 ibnd=   2 iqi=   1 MATEL1: 0.0918267
k=   3 jbnd=   6 ibnd=   3 iqi=   1 MATEL1: 0.0383379
k=   3 jbnd=   6 ibnd=   4 iqi=   1 MATEL1: 0.0383392
k=   3 jbnd=   7 ibnd=   1 iqi=   1 MATEL1: 0.0739393
k=   3 jbnd=   7 ibnd=   2 iqi=   1 MATEL1: 0.0739323
k=   3 jbnd=   7 ibnd=   3 iqi=   1 MATEL1: 0.0977519
k=   3 jbnd=   7 ibnd=   4 iqi=   1 MATEL1: 0.0534737
k=   3 jbnd=   8 ibnd=   1 iqi=   1 MATEL1: 0.0739354
k=   3 jbnd=   8 ibnd=   2 iqi=   1 MATEL1: 0.0739341
k=   3 jbnd=   8 ibnd=   3 iqi=   1 MATEL1: 0.0534746
k=   3 jbnd=   8 ibnd=   4 iqi=   1 MATEL1: 0.0977477
     EXX: now go back to refine exchange calculation
  -2.30860474582150     

     Self-consistent Calculation

     iteration #  1     ecut=    20.00 Ry     beta=0.70
     Davidson diagonalization with overlap
     ethr =  1.34E-08,  avg # of iterations =  4.7
k=   1 jbnd=   1 ibnd=   1 iqi=   1 MATEL1: 0.7950366
k=   1 jbnd=   1 ibnd=   2 iqi=   1 MATEL1: 0.1279104
k=   1 jbnd=   1 ibnd=   3 iqi=   1 MATEL1: 0.1279104
k=   1 jbnd=   1 ibnd=   4 iqi=   1 MATEL1: 0.1279103
k=   1 jbnd=   2 ibnd=   1 iqi=   1 MATEL1: 0.1269266
k=   1 jbnd=   2 ibnd=   2 iqi=   1 MATEL1: 0.6506253
k=   1 jbnd=   2 ibnd=   3 iqi=   1 MATEL1: 0.3001761
k=   1 jbnd=   2 ibnd=   4 iqi=   1 MATEL1: 0.1200962
k=   1 jbnd=   3 ibnd=   1 iqi=   1 MATEL1: 0.1269266
k=   1 jbnd=   3 ibnd=   2 iqi=   1 MATEL1: 0.1669991
k=   1 jbnd=   3 ibnd=   3 iqi=   1 MATEL1: 0.6316522
k=   1 jbnd=   3 ibnd=   4 iqi=   1 MATEL1: 0.2722461
k=   1 jbnd=   4 ibnd=   1 iqi=   1 MATEL1: 0.1269266
k=   1 jbnd=   4 ibnd=   2 iqi=   1 MATEL1: 0.2532734
k=   1 jbnd=   4 ibnd=   3 iqi=   1 MATEL1: 0.1390690
k=   1 jbnd=   4 ibnd=   4 iqi=   1 MATEL1: 0.6785546
k=   1 jbnd=   5 ibnd=   1 iqi=   1 MATEL1: 0.0991752
k=   1 jbnd=   5 ibnd=   2 iqi=   1 MATEL1: 0.0545889
k=   1 jbnd=   5 ibnd=   3 iqi=   1 MATEL1: 0.0525249
k=   1 jbnd=   5 ibnd=   4 iqi=   1 MATEL1: 0.0518739
k=   1 jbnd=   6 ibnd=   1 iqi=   1 MATEL1: 0.0991752
k=   1 jbnd=   6 ibnd=   2 iqi=   1 MATEL1: 0.0462168
k=   1 jbnd=   6 ibnd=   3 iqi=   1 MATEL1: 0.0574540
k=   1 jbnd=   6 ibnd=   4 iqi=   1 MATEL1: 0.0553167
k=   1 jbnd=   7 ibnd=   1 iqi=   1 MATEL1: 0.0991752
k=   1 jbnd=   7 ibnd=   2 iqi=   1 MATEL1: 0.0581804
k=   1 jbnd=   7 ibnd=   3 iqi=   1 MATEL1: 0.0490098
k=   1 jbnd=   7 ibnd=   4 iqi=   1 MATEL1: 0.0517971
k=   1 jbnd=   8 ibnd=   1 iqi=   1 MATEL1: 0.1205789
k=   1 jbnd=   8 ibnd=   2 iqi=   1 MATEL1: 0.0599487
k=   1 jbnd=   8 ibnd=   3 iqi=   1 MATEL1: 0.0599519
k=   1 jbnd=   8 ibnd=   4 iqi=   1 MATEL1: 0.0599471
k=   2 jbnd=   1 ibnd=   1 iqi=   1 MATEL1: 0.8453730
k=   2 jbnd=   1 ibnd=   2 iqi=   1 MATEL1: 0.0481165
k=   2 jbnd=   1 ibnd=   3 iqi=   1 MATEL1: 0.1426586
k=   2 jbnd=   1 ibnd=   4 iqi=   1 MATEL1: 0.1426586
k=   2 jbnd=   2 ibnd=   1 iqi=   1 MATEL1: 0.0475010
k=   2 jbnd=   2 ibnd=   2 iqi=   1 MATEL1: 0.9156724
k=   2 jbnd=   2 ibnd=   3 iqi=   1 MATEL1: 0.0700908
k=   2 jbnd=   2 ibnd=   4 iqi=   1 MATEL1: 0.0700908
k=   2 jbnd=   3 ibnd=   1 iqi=   1 MATEL1: 0.1414007
k=   2 jbnd=   3 ibnd=   2 iqi=   1 MATEL1: 0.0703522
k=   2 jbnd=   3 ibnd=   3 iqi=   1 MATEL1: 0.6624013
k=   2 jbnd=   3 ibnd=   4 iqi=   1 MATEL1: 0.2906608
k=   2 jbnd=   4 ibnd=   1 iqi=   1 MATEL1: 0.1414007
k=   2 jbnd=   4 ibnd=   2 iqi=   1 MATEL1: 0.0703522
k=   2 jbnd=   4 ibnd=   3 iqi=   1 MATEL1: 0.2906608
k=   2 jbnd=   4 ibnd=   4 iqi=   1 MATEL1: 0.6624012
k=   2 jbnd=   5 ibnd=   1 iqi=   1 MATEL1: 0.1156718
k=   2 jbnd=   5 ibnd=   2 iqi=   1 MATEL1: 0.0740990
k=   2 jbnd=   5 ibnd=   3 iqi=   1 MATEL1: 0.0348496
k=   2 jbnd=   5 ibnd=   4 iqi=   1 MATEL1: 0.0348496
k=   2 jbnd=   6 ibnd=   1 iqi=   1 MATEL1: 0.1017187
k=   2 jbnd=   6 ibnd=   2 iqi=   1 MATEL1: 0.0346877
k=   2 jbnd=   6 ibnd=   3 iqi=   1 MATEL1: 0.0666265
k=   2 jbnd=   6 ibnd=   4 iqi=   1 MATEL1: 0.0543573
k=   2 jbnd=   7 ibnd=   1 iqi=   1 MATEL1: 0.1017187
k=   2 jbnd=   7 ibnd=   2 iqi=   1 MATEL1: 0.0346878
k=   2 jbnd=   7 ibnd=   3 iqi=   1 MATEL1: 0.0543574
k=   2 jbnd=   7 ibnd=   4 iqi=   1 MATEL1: 0.0666265
k=   2 jbnd=   8 ibnd=   1 iqi=   1 MATEL1: 0.0552941
k=   2 jbnd=   8 ibnd=   2 iqi=   1 MATEL1: 0.0295290
k=   2 jbnd=   8 ibnd=   3 iqi=   1 MATEL1: 0.0155442
k=   2 jbnd=   8 ibnd=   4 iqi=   1 MATEL1: 0.0155444
k=   3 jbnd=   1 ibnd=   1 iqi=   1 MATEL1: 0.0782364
k=   3 jbnd=   1 ibnd=   2 iqi=   1 MATEL1: 0.8550244
k=   3 jbnd=   1 ibnd=   3 iqi=   1 MATEL1: 0.1159499
k=   3 jbnd=   1 ibnd=   4 iqi=   1 MATEL1: 0.1159297
k=   3 jbnd=   2 ibnd=   1 iqi=   1 MATEL1: 0.8550253
k=   3 jbnd=   2 ibnd=   2 iqi=   1 MATEL1: 0.0782411
k=   3 jbnd=   2 ibnd=   3 iqi=   1 MATEL1: 0.1159366
k=   3 jbnd=   2 ibnd=   4 iqi=   1 MATEL1: 0.1159569
k=   3 jbnd=   3 ibnd=   1 iqi=   1 MATEL1: 0.1151285
k=   3 jbnd=   3 ibnd=   2 iqi=   1 MATEL1: 0.1151344
k=   3 jbnd=   3 ibnd=   3 iqi=   1 MATEL1: 0.5280814
k=   3 jbnd=   3 ibnd=   4 iqi=   1 MATEL1: 0.3625562
k=   3 jbnd=   4 ibnd=   1 iqi=   1 MATEL1: 0.1151282
k=   3 jbnd=   4 ibnd=   2 iqi=   1 MATEL1: 0.1151343
k=   3 jbnd=   4 ibnd=   3 iqi=   1 MATEL1: 0.3625562
k=   3 jbnd=   4 ibnd=   4 iqi=   1 MATEL1: 0.5280815
k=   3 jbnd=   5 ibnd=   1 iqi=   1 MATEL1: 0.0620787
k=   3 jbnd=   5 ibnd=   2 iqi=   1 MATEL1: 0.0899111
k=   3 jbnd=   5 ibnd=   3 iqi=   1 MATEL1: 0.0382927
k=   3 jbnd=   5 ibnd=   4 iqi=   1 MATEL1: 0.0382829
k=   3 jbnd=   6 ibnd=   1 iqi=   1 MATEL1: 0.0899051
k=   3 jbnd=   6 ibnd=   2 iqi=   1 MATEL1: 0.0620772
k=   3 jbnd=   6 ibnd=   3 iqi=   1 MATEL1: 0.0382838
k=   3 jbnd=   6 ibnd=   4 iqi=   1 MATEL1: 0.0382933
k=   3 jbnd=   7 ibnd=   1 iqi=   1 MATEL1: 0.0736789
k=   3 jbnd=   7 ibnd=   2 iqi=   1 MATEL1: 0.0736620
k=   3 jbnd=   7 ibnd=   3 iqi=   1 MATEL1: 0.0904177
k=   3 jbnd=   7 ibnd=   4 iqi=   1 MATEL1: 0.0604790
k=   3 jbnd=   8 ibnd=   1 iqi=   1 MATEL1: 0.0736718
k=   3 jbnd=   8 ibnd=   2 iqi=   1 MATEL1: 0.0736676
k=   3 jbnd=   8 ibnd=   3 iqi=   1 MATEL1: 0.0604794
k=   3 jbnd=   8 ibnd=   4 iqi=   1 MATEL1: 0.0904156

     total cpu time spent up to now is        0.4 secs

     total energy              =     -15.64686374 Ry
     Harris-Foulkes estimate   =     -15.64688947 Ry
     estimated scf accuracy    <       0.00008459 Ry

     iteration #  2     ecut=    20.00 Ry     beta=0.70
     Davidson diagonalization with overlap
     ethr =  1.06E-06,  avg # of iterations =  1.0
k=   1 jbnd=   1 ibnd=   1 iqi=   1 MATEL1: 0.7950785
k=   1 jbnd=   1 ibnd=   2 iqi=   1 MATEL1: 0.1279665
k=   1 jbnd=   1 ibnd=   3 iqi=   1 MATEL1: 0.1279665
k=   1 jbnd=   1 ibnd=   4 iqi=   1 MATEL1: 0.1279665
k=   1 jbnd=   2 ibnd=   1 iqi=   1 MATEL1: 0.1269360
k=   1 jbnd=   2 ibnd=   2 iqi=   1 MATEL1: 0.6531350
k=   1 jbnd=   2 ibnd=   3 iqi=   1 MATEL1: 0.2974748
k=   1 jbnd=   2 ibnd=   4 iqi=   1 MATEL1: 0.1204194
k=   1 jbnd=   3 ibnd=   1 iqi=   1 MATEL1: 0.1269360
k=   1 jbnd=   3 ibnd=   2 iqi=   1 MATEL1: 0.1658969
k=   1 jbnd=   3 ibnd=   3 iqi=   1 MATEL1: 0.6347881
k=   1 jbnd=   3 ibnd=   4 iqi=   1 MATEL1: 0.2703441
k=   1 jbnd=   4 ibnd=   1 iqi=   1 MATEL1: 0.1269361
k=   1 jbnd=   4 ibnd=   2 iqi=   1 MATEL1: 0.2519975
k=   1 jbnd=   4 ibnd=   3 iqi=   1 MATEL1: 0.1387661
k=   1 jbnd=   4 ibnd=   4 iqi=   1 MATEL1: 0.6802651
k=   1 jbnd=   5 ibnd=   1 iqi=   1 MATEL1: 0.0991904
k=   1 jbnd=   5 ibnd=   2 iqi=   1 MATEL1: 0.0538060
k=   1 jbnd=   5 ibnd=   3 iqi=   1 MATEL1: 0.0512223
k=   1 jbnd=   5 ibnd=   4 iqi=   1 MATEL1: 0.0540386
k=   1 jbnd=   6 ibnd=   1 iqi=   1 MATEL1: 0.0991905
k=   1 jbnd=   6 ibnd=   2 iqi=   1 MATEL1: 0.0464035
k=   1 jbnd=   6 ibnd=   3 iqi=   1 MATEL1: 0.0579224
k=   1 jbnd=   6 ibnd=   4 iqi=   1 MATEL1: 0.0547408
k=   1 jbnd=   7 ibnd=   1 iqi=   1 MATEL1: 0.0991905
k=   1 jbnd=   7 ibnd=   2 iqi=   1 MATEL1: 0.0588562
k=   1 jbnd=   7 ibnd=   3 iqi=   1 MATEL1: 0.0499228
k=   1 jbnd=   7 ibnd=   4 iqi=   1 MATEL1: 0.0502876
k=   1 jbnd=   8 ibnd=   1 iqi=   1 MATEL1: 0.1206069
k=   1 jbnd=   8 ibnd=   2 iqi=   1 MATEL1: 0.0599717
k=   1 jbnd=   8 ibnd=   3 iqi=   1 MATEL1: 0.0599741
k=   1 jbnd=   8 ibnd=   4 iqi=   1 MATEL1: 0.0599703
k=   2 jbnd=   1 ibnd=   1 iqi=   1 MATEL1: 0.8454238
k=   2 jbnd=   1 ibnd=   2 iqi=   1 MATEL1: 0.0481173
k=   2 jbnd=   1 ibnd=   3 iqi=   1 MATEL1: 0.1427017
k=   2 jbnd=   1 ibnd=   4 iqi=   1 MATEL1: 0.1427016
k=   2 jbnd=   2 ibnd=   1 iqi=   1 MATEL1: 0.0475070
k=   2 jbnd=   2 ibnd=   2 iqi=   1 MATEL1: 0.9158619
k=   2 jbnd=   2 ibnd=   3 iqi=   1 MATEL1: 0.0700978
k=   2 jbnd=   2 ibnd=   4 iqi=   1 MATEL1: 0.0700979
k=   2 jbnd=   3 ibnd=   1 iqi=   1 MATEL1: 0.1414542
k=   2 jbnd=   3 ibnd=   2 iqi=   1 MATEL1: 0.0703108
k=   2 jbnd=   3 ibnd=   3 iqi=   1 MATEL1: 0.6630608
k=   2 jbnd=   3 ibnd=   4 iqi=   1 MATEL1: 0.2901092
k=   2 jbnd=   4 ibnd=   1 iqi=   1 MATEL1: 0.1414542
k=   2 jbnd=   4 ibnd=   2 iqi=   1 MATEL1: 0.0703107
k=   2 jbnd=   4 ibnd=   3 iqi=   1 MATEL1: 0.2901092
k=   2 jbnd=   4 ibnd=   4 iqi=   1 MATEL1: 0.6630608
k=   2 jbnd=   5 ibnd=   1 iqi=   1 MATEL1: 0.1157284
k=   2 jbnd=   5 ibnd=   2 iqi=   1 MATEL1: 0.0739242
k=   2 jbnd=   5 ibnd=   3 iqi=   1 MATEL1: 0.0348491
k=   2 jbnd=   5 ibnd=   4 iqi=   1 MATEL1: 0.0348491
k=   2 jbnd=   6 ibnd=   1 iqi=   1 MATEL1: 0.1017534
k=   2 jbnd=   6 ibnd=   2 iqi=   1 MATEL1: 0.0346736
k=   2 jbnd=   6 ibnd=   3 iqi=   1 MATEL1: 0.0599510
k=   2 jbnd=   6 ibnd=   4 iqi=   1 MATEL1: 0.0610814
k=   2 jbnd=   7 ibnd=   1 iqi=   1 MATEL1: 0.1017533
k=   2 jbnd=   7 ibnd=   2 iqi=   1 MATEL1: 0.0346735
k=   2 jbnd=   7 ibnd=   3 iqi=   1 MATEL1: 0.0610814
k=   2 jbnd=   7 ibnd=   4 iqi=   1 MATEL1: 0.0599510
k=   2 jbnd=   8 ibnd=   1 iqi=   1 MATEL1: 0.0552875
k=   2 jbnd=   8 ibnd=   2 iqi=   1 MATEL1: 0.0295287
k=   2 jbnd=   8 ibnd=   3 iqi=   1 MATEL1: 0.0155350
k=   2 jbnd=   8 ibnd=   4 iqi=   1 MATEL1: 0.0155351
k=   3 jbnd=   1 ibnd=   1 iqi=   1 MATEL1: 0.8551135
k=   3 jbnd=   1 ibnd=   2 iqi=   1 MATEL1: 0.0782710
k=   3 jbnd=   1 ibnd=   3 iqi=   1 MATEL1: 0.1159879
k=   3 jbnd=   1 ibnd=   4 iqi=   1 MATEL1: 0.1159292
k=   3 jbnd=   2 ibnd=   1 iqi=   1 MATEL1: 0.0782684
k=   3 jbnd=   2 ibnd=   2 iqi=   1 MATEL1: 0.8551051
k=   3 jbnd=   2 ibnd=   3 iqi=   1 MATEL1: 0.1159213
k=   3 jbnd=   2 ibnd=   4 iqi=   1 MATEL1: 0.1159799
k=   3 jbnd=   3 ibnd=   1 iqi=   1 MATEL1: 0.1151742
k=   3 jbnd=   3 ibnd=   2 iqi=   1 MATEL1: 0.1151702
k=   3 jbnd=   3 ibnd=   3 iqi=   1 MATEL1: 0.5278882
k=   3 jbnd=   3 ibnd=   4 iqi=   1 MATEL1: 0.3628190
k=   3 jbnd=   4 ibnd=   1 iqi=   1 MATEL1: 0.1151739
k=   3 jbnd=   4 ibnd=   2 iqi=   1 MATEL1: 0.1151701
k=   3 jbnd=   4 ibnd=   3 iqi=   1 MATEL1: 0.3628190
k=   3 jbnd=   4 ibnd=   4 iqi=   1 MATEL1: 0.5278882
k=   3 jbnd=   5 ibnd=   1 iqi=   1 MATEL1: 0.0898959
k=   3 jbnd=   5 ibnd=   2 iqi=   1 MATEL1: 0.0620858
k=   3 jbnd=   5 ibnd=   3 iqi=   1 MATEL1: 0.0383496
k=   3 jbnd=   5 ibnd=   4 iqi=   1 MATEL1: 0.0382248
k=   3 jbnd=   6 ibnd=   1 iqi=   1 MATEL1: 0.0620845
k=   3 jbnd=   6 ibnd=   2 iqi=   1 MATEL1: 0.0898983
k=   3 jbnd=   6 ibnd=   3 iqi=   1 MATEL1: 0.0382230
k=   3 jbnd=   6 ibnd=   4 iqi=   1 MATEL1: 0.0383477
k=   3 jbnd=   7 ibnd=   1 iqi=   1 MATEL1: 0.0736850
k=   3 jbnd=   7 ibnd=   2 iqi=   1 MATEL1: 0.0736776
k=   3 jbnd=   7 ibnd=   3 iqi=   1 MATEL1: 0.0928147
k=   3 jbnd=   7 ibnd=   4 iqi=   1 MATEL1: 0.0580965
k=   3 jbnd=   8 ibnd=   1 iqi=   1 MATEL1: 0.0736812
k=   3 jbnd=   8 ibnd=   2 iqi=   1 MATEL1: 0.0736813
k=   3 jbnd=   8 ibnd=   3 iqi=   1 MATEL1: 0.0580965
k=   3 jbnd=   8 ibnd=   4 iqi=   1 MATEL1: 0.0928142

     total cpu time spent up to now is        0.6 secs

     total energy              =     -15.64687017 Ry
     Harris-Foulkes estimate   =     -15.64686943 Ry
     estimated scf accuracy    <       0.00000228 Ry

     iteration #  3     ecut=    20.00 Ry     beta=0.70
     Davidson diagonalization with overlap
     ethr =  2.85E-08,  avg # of iterations =  1.7
k=   1 jbnd=   1 ibnd=   1 iqi=   1 MATEL1: 0.7950847
k=   1 jbnd=   1 ibnd=   2 iqi=   1 MATEL1: 0.1279788
k=   1 jbnd=   1 ibnd=   3 iqi=   1 MATEL1: 0.1279788
k=   1 jbnd=   1 ibnd=   4 iqi=   1 MATEL1: 0.1279787
k=   1 jbnd=   2 ibnd=   1 iqi=   1 MATEL1: 0.1269365
k=   1 jbnd=   2 ibnd=   2 iqi=   1 MATEL1: 0.6533438
k=   1 jbnd=   2 ibnd=   3 iqi=   1 MATEL1: 0.2973137
k=   1 jbnd=   2 ibnd=   4 iqi=   1 MATEL1: 0.1203899
k=   1 jbnd=   3 ibnd=   1 iqi=   1 MATEL1: 0.1269365
k=   1 jbnd=   3 ibnd=   2 iqi=   1 MATEL1: 0.1658889
k=   1 jbnd=   3 ibnd=   3 iqi=   1 MATEL1: 0.6350151
k=   1 jbnd=   3 ibnd=   4 iqi=   1 MATEL1: 0.2701433
k=   1 jbnd=   4 ibnd=   1 iqi=   1 MATEL1: 0.1269365
k=   1 jbnd=   4 ibnd=   2 iqi=   1 MATEL1: 0.2518148
k=   1 jbnd=   4 ibnd=   3 iqi=   1 MATEL1: 0.1387185
k=   1 jbnd=   4 ibnd=   4 iqi=   1 MATEL1: 0.6805136
k=   1 jbnd=   5 ibnd=   1 iqi=   1 MATEL1: 0.0991924
k=   1 jbnd=   5 ibnd=   2 iqi=   1 MATEL1: 0.0535153
k=   1 jbnd=   5 ibnd=   3 iqi=   1 MATEL1: 0.0508036
k=   1 jbnd=   5 ibnd=   4 iqi=   1 MATEL1: 0.0547572
k=   1 jbnd=   6 ibnd=   1 iqi=   1 MATEL1: 0.0991924
k=   1 jbnd=   6 ibnd=   2 iqi=   1 MATEL1: 0.0466374
k=   1 jbnd=   6 ibnd=   3 iqi=   1 MATEL1: 0.0582413
k=   1 jbnd=   6 ibnd=   4 iqi=   1 MATEL1: 0.0541972
k=   1 jbnd=   7 ibnd=   1 iqi=   1 MATEL1: 0.0991924
k=   1 jbnd=   7 ibnd=   2 iqi=   1 MATEL1: 0.0589225
k=   1 jbnd=   7 ibnd=   3 iqi=   1 MATEL1: 0.0500316
k=   1 jbnd=   7 ibnd=   4 iqi=   1 MATEL1: 0.0501217
k=   1 jbnd=   8 ibnd=   1 iqi=   1 MATEL1: 0.1206143
k=   1 jbnd=   8 ibnd=   2 iqi=   1 MATEL1: 0.0599817
k=   1 jbnd=   8 ibnd=   3 iqi=   1 MATEL1: 0.0599834
k=   1 jbnd=   8 ibnd=   4 iqi=   1 MATEL1: 0.0599806
k=   2 jbnd=   1 ibnd=   1 iqi=   1 MATEL1: 0.8454310
k=   2 jbnd=   1 ibnd=   2 iqi=   1 MATEL1: 0.0481183
k=   2 jbnd=   1 ibnd=   3 iqi=   1 MATEL1: 0.1427132
k=   2 jbnd=   1 ibnd=   4 iqi=   1 MATEL1: 0.1427131
k=   2 jbnd=   2 ibnd=   1 iqi=   1 MATEL1: 0.0475053
k=   2 jbnd=   2 ibnd=   2 iqi=   1 MATEL1: 0.9158870
k=   2 jbnd=   2 ibnd=   3 iqi=   1 MATEL1: 0.0700951
k=   2 jbnd=   2 ibnd=   4 iqi=   1 MATEL1: 0.0700952
k=   2 jbnd=   3 ibnd=   1 iqi=   1 MATEL1: 0.1414769
k=   2 jbnd=   3 ibnd=   2 iqi=   1 MATEL1: 0.0702825
k=   2 jbnd=   3 ibnd=   3 iqi=   1 MATEL1: 0.6630908
k=   2 jbnd=   3 ibnd=   4 iqi=   1 MATEL1: 0.2901122
k=   2 jbnd=   4 ibnd=   1 iqi=   1 MATEL1: 0.1414769
k=   2 jbnd=   4 ibnd=   2 iqi=   1 MATEL1: 0.0702824
k=   2 jbnd=   4 ibnd=   3 iqi=   1 MATEL1: 0.2901122
k=   2 jbnd=   4 ibnd=   4 iqi=   1 MATEL1: 0.6630907
k=   2 jbnd=   5 ibnd=   1 iqi=   1 MATEL1: 0.1157425
k=   2 jbnd=   5 ibnd=   2 iqi=   1 MATEL1: 0.0738994
k=   2 jbnd=   5 ibnd=   3 iqi=   1 MATEL1: 0.0348516
k=   2 jbnd=   5 ibnd=   4 iqi=   1 MATEL1: 0.0348516
k=   2 jbnd=   6 ibnd=   1 iqi=   1 MATEL1: 0.1017566
k=   2 jbnd=   6 ibnd=   2 iqi=   1 MATEL1: 0.0346700
k=   2 jbnd=   6 ibnd=   3 iqi=   1 MATEL1: 0.0594546
k=   2 jbnd=   6 ibnd=   4 iqi=   1 MATEL1: 0.0615775
k=   2 jbnd=   7 ibnd=   1 iqi=   1 MATEL1: 0.1017566
k=   2 jbnd=   7 ibnd=   2 iqi=   1 MATEL1: 0.0346700
k=   2 jbnd=   7 ibnd=   3 iqi=   1 MATEL1: 0.0615775
k=   2 jbnd=   7 ibnd=   4 iqi=   1 MATEL1: 0.0594545
k=   2 jbnd=   8 ibnd=   1 iqi=   1 MATEL1: 0.0552841
k=   2 jbnd=   8 ibnd=   2 iqi=   1 MATEL1: 0.0295309
k=   2 jbnd=   8 ibnd=   3 iqi=   1 MATEL1: 0.0155326
k=   2 jbnd=   8 ibnd=   4 iqi=   1 MATEL1: 0.0155327
k=   3 jbnd=   1 ibnd=   1 iqi=   1 MATEL1: 0.0782819
k=   3 jbnd=   1 ibnd=   2 iqi=   1 MATEL1: 0.8551080
k=   3 jbnd=   1 ibnd=   3 iqi=   1 MATEL1: 0.1160145
k=   3 jbnd=   1 ibnd=   4 iqi=   1 MATEL1: 0.1158930
k=   3 jbnd=   2 ibnd=   1 iqi=   1 MATEL1: 0.8551142
k=   3 jbnd=   2 ibnd=   2 iqi=   1 MATEL1: 0.0782846
k=   3 jbnd=   2 ibnd=   3 iqi=   1 MATEL1: 0.1159008
k=   3 jbnd=   2 ibnd=   4 iqi=   1 MATEL1: 0.1160222
k=   3 jbnd=   3 ibnd=   1 iqi=   1 MATEL1: 0.1151805
k=   3 jbnd=   3 ibnd=   2 iqi=   1 MATEL1: 0.1151801
k=   3 jbnd=   3 ibnd=   3 iqi=   1 MATEL1: 0.5279290
k=   3 jbnd=   3 ibnd=   4 iqi=   1 MATEL1: 0.3627923
k=   3 jbnd=   4 ibnd=   1 iqi=   1 MATEL1: 0.1151802
k=   3 jbnd=   4 ibnd=   2 iqi=   1 MATEL1: 0.1151800
k=   3 jbnd=   4 ibnd=   3 iqi=   1 MATEL1: 0.3627923
k=   3 jbnd=   4 ibnd=   4 iqi=   1 MATEL1: 0.5279291
k=   3 jbnd=   5 ibnd=   1 iqi=   1 MATEL1: 0.0620803
k=   3 jbnd=   5 ibnd=   2 iqi=   1 MATEL1: 0.0899066
k=   3 jbnd=   5 ibnd=   3 iqi=   1 MATEL1: 0.0382991
k=   3 jbnd=   5 ibnd=   4 iqi=   1 MATEL1: 0.0382725
k=   3 jbnd=   6 ibnd=   1 iqi=   1 MATEL1: 0.0899027
k=   3 jbnd=   6 ibnd=   2 iqi=   1 MATEL1: 0.0620806
k=   3 jbnd=   6 ibnd=   3 iqi=   1 MATEL1: 0.0382741
k=   3 jbnd=   6 ibnd=   4 iqi=   1 MATEL1: 0.0383006
k=   3 jbnd=   7 ibnd=   1 iqi=   1 MATEL1: 0.0736895
k=   3 jbnd=   7 ibnd=   2 iqi=   1 MATEL1: 0.0736796
k=   3 jbnd=   7 ibnd=   3 iqi=   1 MATEL1: 0.0967304
k=   3 jbnd=   7 ibnd=   4 iqi=   1 MATEL1: 0.0541890
k=   3 jbnd=   8 ibnd=   1 iqi=   1 MATEL1: 0.0736866
k=   3 jbnd=   8 ibnd=   2 iqi=   1 MATEL1: 0.0736825
k=   3 jbnd=   8 ibnd=   3 iqi=   1 MATEL1: 0.0541883
k=   3 jbnd=   8 ibnd=   4 iqi=   1 MATEL1: 0.0967315

     total cpu time spent up to now is        0.7 secs

     End of self-consistent calculation

          k = 0.0000 0.0000 0.0000 (   411 PWs)   bands (ev):

    -7.2322   4.9980   4.9980   4.9980  10.2173  10.2173  10.2173  11.1708

          k = 0.5000-0.5000 0.5000 (   410 PWs)   bands (ev):

    -4.7640  -2.0973   3.7825   3.7825   9.2568  10.8799  10.8799  15.1626

          k = 0.0000-1.0000 0.0000 (   412 PWs)   bands (ev):

    -2.9110  -2.9109   2.0903   2.0903   8.1505   8.1505  17.7876  17.7876

     highest occupied, lowest unoccupied level (ev):     4.9980    8.1505
k=   1 jbnd=   1 ibnd=   1 iqi=   1 MATEL1: 0.7956054
k=   1 jbnd=   1 ibnd=   2 iqi=   1 MATEL1: 0.1281180
k=   1 jbnd=   1 ibnd=   3 iqi=   1 MATEL1: 0.1281180
k=   1 jbnd=   1 ibnd=   4 iqi=   1 MATEL1: 0.1281179
k=   1 jbnd=   2 ibnd=   1 iqi=   1 MATEL1: 0.1281180
k=   1 jbnd=   2 ibnd=   2 iqi=   1 MATEL1: 0.9102131
k=   1 jbnd=   2 ibnd=   3 iqi=   1 MATEL1: 0.1250359
k=   1 jbnd=   2 ibnd=   4 iqi=   1 MATEL1: 0.0387267
k=   1 jbnd=   3 ibnd=   1 iqi=   1 MATEL1: 0.1281180
k=   1 jbnd=   3 ibnd=   2 iqi=   1 MATEL1: 0.1250359
k=   1 jbnd=   3 ibnd=   3 iqi=   1 MATEL1: 0.8803975
k=   1 jbnd=   3 ibnd=   4 iqi=   1 MATEL1: 0.0685423
k=   1 jbnd=   4 ibnd=   1 iqi=   1 MATEL1: 0.1281179
k=   1 jbnd=   4 ibnd=   2 iqi=   1 MATEL1: 0.0387267
k=   1 jbnd=   4 ibnd=   3 iqi=   1 MATEL1: 0.0685423
k=   1 jbnd=   4 ibnd=   4 iqi=   1 MATEL1: 0.9667066
k=   1 jbnd=   5 ibnd=   1 iqi=   1 MATEL1: 0.0986633
k=   1 jbnd=   5 ibnd=   2 iqi=   1 MATEL1: 0.0538653
k=   1 jbnd=   5 ibnd=   3 iqi=   1 MATEL1: 0.0486421
k=   1 jbnd=   5 ibnd=   4 iqi=   1 MATEL1: 0.0548988
k=   1 jbnd=   6 ibnd=   1 iqi=   1 MATEL1: 0.0986633
k=   1 jbnd=   6 ibnd=   2 iqi=   1 MATEL1: 0.0461221
k=   1 jbnd=   6 ibnd=   3 iqi=   1 MATEL1: 0.0637693
k=   1 jbnd=   6 ibnd=   4 iqi=   1 MATEL1: 0.0475148
k=   1 jbnd=   7 ibnd=   1 iqi=   1 MATEL1: 0.0986633
k=   1 jbnd=   7 ibnd=   2 iqi=   1 MATEL1: 0.0574194
k=   1 jbnd=   7 ibnd=   3 iqi=   1 MATEL1: 0.0449959
k=   1 jbnd=   7 ibnd=   4 iqi=   1 MATEL1: 0.0549909
k=   1 jbnd=   8 ibnd=   1 iqi=   1 MATEL1: 0.1205528
k=   1 jbnd=   8 ibnd=   2 iqi=   1 MATEL1: 0.0590758
k=   1 jbnd=   8 ibnd=   3 iqi=   1 MATEL1: 0.0590795
k=   1 jbnd=   8 ibnd=   4 iqi=   1 MATEL1: 0.0590756
k=   2 jbnd=   1 ibnd=   1 iqi=   1 MATEL1: 0.8452355
k=   2 jbnd=   1 ibnd=   2 iqi=   1 MATEL1: 0.0481865
k=   2 jbnd=   1 ibnd=   3 iqi=   1 MATEL1: 0.1422642
k=   2 jbnd=   1 ibnd=   4 iqi=   1 MATEL1: 0.1422641
k=   2 jbnd=   2 ibnd=   1 iqi=   1 MATEL1: 0.0481865
k=   2 jbnd=   2 ibnd=   2 iqi=   1 MATEL1: 0.9137696
k=   2 jbnd=   2 ibnd=   3 iqi=   1 MATEL1: 0.0705074
k=   2 jbnd=   2 ibnd=   4 iqi=   1 MATEL1: 0.0705074
k=   2 jbnd=   3 ibnd=   1 iqi=   1 MATEL1: 0.1422642
k=   2 jbnd=   3 ibnd=   2 iqi=   1 MATEL1: 0.0705074
k=   2 jbnd=   3 ibnd=   3 iqi=   1 MATEL1: 0.8937788
k=   2 jbnd=   3 ibnd=   4 iqi=   1 MATEL1: 0.0596702
k=   2 jbnd=   4 ibnd=   1 iqi=   1 MATEL1: 0.1422641
k=   2 jbnd=   4 ibnd=   2 iqi=   1 MATEL1: 0.0705074
k=   2 jbnd=   4 ibnd=   3 iqi=   1 MATEL1: 0.0596702
k=   2 jbnd=   4 ibnd=   4 iqi=   1 MATEL1: 0.8937788
k=   2 jbnd=   5 ibnd=   1 iqi=   1 MATEL1: 0.1140625
k=   2 jbnd=   5 ibnd=   2 iqi=   1 MATEL1: 0.0730039
k=   2 jbnd=   5 ibnd=   3 iqi=   1 MATEL1: 0.0344835
k=   2 jbnd=   5 ibnd=   4 iqi=   1 MATEL1: 0.0344835
k=   2 jbnd=   6 ibnd=   1 iqi=   1 MATEL1: 0.1014496
k=   2 jbnd=   6 ibnd=   2 iqi=   1 MATEL1: 0.0350318
k=   2 jbnd=   6 ibnd=   3 iqi=   1 MATEL1: 0.0550251
k=   2 jbnd=   6 ibnd=   4 iqi=   1 MATEL1: 0.0650338
k=   2 jbnd=   7 ibnd=   1 iqi=   1 MATEL1: 0.1014495
k=   2 jbnd=   7 ibnd=   2 iqi=   1 MATEL1: 0.0350317
k=   2 jbnd=   7 ibnd=   3 iqi=   1 MATEL1: 0.0650337
k=   2 jbnd=   7 ibnd=   4 iqi=   1 MATEL1: 0.0550252
k=   2 jbnd=   8 ibnd=   1 iqi=   1 MATEL1: 0.0545814
k=   2 jbnd=   8 ibnd=   2 iqi=   1 MATEL1: 0.0298974
k=   2 jbnd=   8 ibnd=   3 iqi=   1 MATEL1: 0.0155339
k=   2 jbnd=   8 ibnd=   4 iqi=   1 MATEL1: 0.0155339
k=   3 jbnd=   1 ibnd=   1 iqi=   1 MATEL1: 0.8552636
k=   3 jbnd=   1 ibnd=   2 iqi=   1 MATEL1: 0.0773193
k=   3 jbnd=   1 ibnd=   3 iqi=   1 MATEL1: 0.1158099
k=   3 jbnd=   1 ibnd=   4 iqi=   1 MATEL1: 0.1152889
k=   3 jbnd=   2 ibnd=   1 iqi=   1 MATEL1: 0.0773193
k=   3 jbnd=   2 ibnd=   2 iqi=   1 MATEL1: 0.8552630
k=   3 jbnd=   2 ibnd=   3 iqi=   1 MATEL1: 0.1152883
k=   3 jbnd=   2 ibnd=   4 iqi=   1 MATEL1: 0.1158094
k=   3 jbnd=   3 ibnd=   1 iqi=   1 MATEL1: 0.1158099
k=   3 jbnd=   3 ibnd=   2 iqi=   1 MATEL1: 0.1152883
k=   3 jbnd=   3 ibnd=   3 iqi=   1 MATEL1: 0.8334193
k=   3 jbnd=   3 ibnd=   4 iqi=   1 MATEL1: 0.0567928
k=   3 jbnd=   4 ibnd=   1 iqi=   1 MATEL1: 0.1152889
k=   3 jbnd=   4 ibnd=   2 iqi=   1 MATEL1: 0.1158094
k=   3 jbnd=   4 ibnd=   3 iqi=   1 MATEL1: 0.0567928
k=   3 jbnd=   4 ibnd=   4 iqi=   1 MATEL1: 0.8334193
k=   3 jbnd=   5 ibnd=   1 iqi=   1 MATEL1: 0.0893087
k=   3 jbnd=   5 ibnd=   2 iqi=   1 MATEL1: 0.0617191
k=   3 jbnd=   5 ibnd=   3 iqi=   1 MATEL1: 0.0384664
k=   3 jbnd=   5 ibnd=   4 iqi=   1 MATEL1: 0.0383511
k=   3 jbnd=   6 ibnd=   1 iqi=   1 MATEL1: 0.0617201
k=   3 jbnd=   6 ibnd=   2 iqi=   1 MATEL1: 0.0893085
k=   3 jbnd=   6 ibnd=   3 iqi=   1 MATEL1: 0.0383509
k=   3 jbnd=   6 ibnd=   4 iqi=   1 MATEL1: 0.0384662
k=   3 jbnd=   7 ibnd=   1 iqi=   1 MATEL1: 0.0740477
k=   3 jbnd=   7 ibnd=   2 iqi=   1 MATEL1: 0.0740989
k=   3 jbnd=   7 ibnd=   3 iqi=   1 MATEL1: 0.0861973
k=   3 jbnd=   7 ibnd=   4 iqi=   1 MATEL1: 0.0642741
k=   3 jbnd=   8 ibnd=   1 iqi=   1 MATEL1: 0.0740958
k=   3 jbnd=   8 ibnd=   2 iqi=   1 MATEL1: 0.0740509
k=   3 jbnd=   8 ibnd=   3 iqi=   1 MATEL1: 0.0642746
k=   3 jbnd=   8 ibnd=   4 iqi=   1 MATEL1: 0.0861972
  -2.30860474582150       -2.30882821880900       -2.30935224843115     
     est. exchange err (dexx)  =       0.00015028 Ry

!    total energy              =     -15.64702079 Ry
     Harris-Foulkes estimate   =     -15.64702074 Ry
     estimated scf accuracy    <       0.00000008 Ry

     The total energy is the sum of the following terms:

     one-electron contribution =       2.56479259 Ry
     hartree contribution      =       1.24426801 Ry
     xc contribution           =      -3.81345561 Ry
     ewald contribution        =     -16.79677788 Ry
     - averaged Fock potential =       2.30882822 Ry
     + Fock energy             =      -1.15467612 Ry
  NOW GO BACK TO REFINE HYBRID CALCULATION

     Self-consistent Calculation

     iteration #  1     ecut=    20.00 Ry     beta=0.70
     Davidson diagonalization with overlap
     ethr =  2.85E-08,  avg # of iterations =  3.0
k=   1 jbnd=   1 ibnd=   1 iqi=   1 MATEL1: 0.7956742
k=   1 jbnd=   1 ibnd=   2 iqi=   1 MATEL1: 0.1282556
k=   1 jbnd=   1 ibnd=   3 iqi=   1 MATEL1: 0.1282556
k=   1 jbnd=   1 ibnd=   4 iqi=   1 MATEL1: 0.1282556
k=   1 jbnd=   2 ibnd=   1 iqi=   1 MATEL1: 0.1281417
k=   1 jbnd=   2 ibnd=   2 iqi=   1 MATEL1: 0.6612386
k=   1 jbnd=   2 ibnd=   3 iqi=   1 MATEL1: 0.3556886
k=   1 jbnd=   2 ibnd=   4 iqi=   1 MATEL1: 0.0574788
k=   1 jbnd=   3 ibnd=   1 iqi=   1 MATEL1: 0.1281417
k=   1 jbnd=   3 ibnd=   2 iqi=   1 MATEL1: 0.3471400
k=   1 jbnd=   3 ibnd=   3 iqi=   1 MATEL1: 0.6362821
k=   1 jbnd=   3 ibnd=   4 iqi=   1 MATEL1: 0.0909840
k=   1 jbnd=   4 ibnd=   1 iqi=   1 MATEL1: 0.1281416
k=   1 jbnd=   4 ibnd=   2 iqi=   1 MATEL1: 0.0660274
k=   1 jbnd=   4 ibnd=   3 iqi=   1 MATEL1: 0.0824353
k=   1 jbnd=   4 ibnd=   4 iqi=   1 MATEL1: 0.9259432
k=   1 jbnd=   5 ibnd=   1 iqi=   1 MATEL1: 0.0986628
k=   1 jbnd=   5 ibnd=   2 iqi=   1 MATEL1: 0.0538332
k=   1 jbnd=   5 ibnd=   3 iqi=   1 MATEL1: 0.0481682
k=   1 jbnd=   5 ibnd=   4 iqi=   1 MATEL1: 0.0554114
k=   1 jbnd=   6 ibnd=   1 iqi=   1 MATEL1: 0.0986628
k=   1 jbnd=   6 ibnd=   2 iqi=   1 MATEL1: 0.0473594
k=   1 jbnd=   6 ibnd=   3 iqi=   1 MATEL1: 0.0606496
k=   1 jbnd=   6 ibnd=   4 iqi=   1 MATEL1: 0.0494037
k=   1 jbnd=   7 ibnd=   1 iqi=   1 MATEL1: 0.0986628
k=   1 jbnd=   7 ibnd=   2 iqi=   1 MATEL1: 0.0562206
k=   1 jbnd=   7 ibnd=   3 iqi=   1 MATEL1: 0.0485957
k=   1 jbnd=   7 ibnd=   4 iqi=   1 MATEL1: 0.0525965
k=   1 jbnd=   8 ibnd=   1 iqi=   1 MATEL1: 0.1205550
k=   1 jbnd=   8 ibnd=   2 iqi=   1 MATEL1: 0.0590769
k=   1 jbnd=   8 ibnd=   3 iqi=   1 MATEL1: 0.0590798
k=   1 jbnd=   8 ibnd=   4 iqi=   1 MATEL1: 0.0590768
k=   2 jbnd=   1 ibnd=   1 iqi=   1 MATEL1: 0.8451901
k=   2 jbnd=   1 ibnd=   2 iqi=   1 MATEL1: 0.0482831
k=   2 jbnd=   1 ibnd=   3 iqi=   1 MATEL1: 0.1423291
k=   2 jbnd=   1 ibnd=   4 iqi=   1 MATEL1: 0.1423291
k=   2 jbnd=   2 ibnd=   1 iqi=   1 MATEL1: 0.0482257
k=   2 jbnd=   2 ibnd=   2 iqi=   1 MATEL1: 0.9133055
k=   2 jbnd=   2 ibnd=   3 iqi=   1 MATEL1: 0.0705417
k=   2 jbnd=   2 ibnd=   4 iqi=   1 MATEL1: 0.0705417
k=   2 jbnd=   3 ibnd=   1 iqi=   1 MATEL1: 0.1421743
k=   2 jbnd=   3 ibnd=   2 iqi=   1 MATEL1: 0.0706093
k=   2 jbnd=   3 ibnd=   3 iqi=   1 MATEL1: 0.8822401
k=   2 jbnd=   3 ibnd=   4 iqi=   1 MATEL1: 0.0711914
k=   2 jbnd=   4 ibnd=   1 iqi=   1 MATEL1: 0.1421743
k=   2 jbnd=   4 ibnd=   2 iqi=   1 MATEL1: 0.0706093
k=   2 jbnd=   4 ibnd=   3 iqi=   1 MATEL1: 0.0711915
k=   2 jbnd=   4 ibnd=   4 iqi=   1 MATEL1: 0.8822401
k=   2 jbnd=   5 ibnd=   1 iqi=   1 MATEL1: 0.1140241
k=   2 jbnd=   5 ibnd=   2 iqi=   1 MATEL1: 0.0731286
k=   2 jbnd=   5 ibnd=   3 iqi=   1 MATEL1: 0.0344921
k=   2 jbnd=   5 ibnd=   4 iqi=   1 MATEL1: 0.0344921
k=   2 jbnd=   6 ibnd=   1 iqi=   1 MATEL1: 0.1014193
k=   2 jbnd=   6 ibnd=   2 iqi=   1 MATEL1: 0.0350521
k=   2 jbnd=   6 ibnd=   3 iqi=   1 MATEL1: 0.0588356
k=   2 jbnd=   6 ibnd=   4 iqi=   1 MATEL1: 0.0612083
k=   2 jbnd=   7 ibnd=   1 iqi=   1 MATEL1: 0.1014193
k=   2 jbnd=   7 ibnd=   2 iqi=   1 MATEL1: 0.0350521
k=   2 jbnd=   7 ibnd=   3 iqi=   1 MATEL1: 0.0612083
k=   2 jbnd=   7 ibnd=   4 iqi=   1 MATEL1: 0.0588356
k=   2 jbnd=   8 ibnd=   1 iqi=   1 MATEL1: 0.0545829
k=   2 jbnd=   8 ibnd=   2 iqi=   1 MATEL1: 0.0298893
k=   2 jbnd=   8 ibnd=   3 iqi=   1 MATEL1: 0.0155527
k=   2 jbnd=   8 ibnd=   4 iqi=   1 MATEL1: 0.0155527
k=   3 jbnd=   1 ibnd=   1 iqi=   1 MATEL1: 0.8552319
k=   3 jbnd=   1 ibnd=   2 iqi=   1 MATEL1: 0.0771662
k=   3 jbnd=   1 ibnd=   3 iqi=   1 MATEL1: 0.1156867
k=   3 jbnd=   1 ibnd=   4 iqi=   1 MATEL1: 0.1154723
k=   3 jbnd=   2 ibnd=   1 iqi=   1 MATEL1: 0.0771659
k=   3 jbnd=   2 ibnd=   2 iqi=   1 MATEL1: 0.8552311
k=   3 jbnd=   2 ibnd=   3 iqi=   1 MATEL1: 0.1154717
k=   3 jbnd=   2 ibnd=   4 iqi=   1 MATEL1: 0.1156860
k=   3 jbnd=   3 ibnd=   1 iqi=   1 MATEL1: 0.1155178
k=   3 jbnd=   3 ibnd=   2 iqi=   1 MATEL1: 0.1154371
k=   3 jbnd=   3 ibnd=   3 iqi=   1 MATEL1: 0.3985075
k=   3 jbnd=   3 ibnd=   4 iqi=   1 MATEL1: 0.4915999
k=   3 jbnd=   4 ibnd=   1 iqi=   1 MATEL1: 0.1154377
k=   3 jbnd=   4 ibnd=   2 iqi=   1 MATEL1: 0.1155170
k=   3 jbnd=   4 ibnd=   3 iqi=   1 MATEL1: 0.4915999
k=   3 jbnd=   4 ibnd=   4 iqi=   1 MATEL1: 0.3985075
k=   3 jbnd=   5 ibnd=   1 iqi=   1 MATEL1: 0.0893012
k=   3 jbnd=   5 ibnd=   2 iqi=   1 MATEL1: 0.0617661
k=   3 jbnd=   5 ibnd=   3 iqi=   1 MATEL1: 0.0384006
k=   3 jbnd=   5 ibnd=   4 iqi=   1 MATEL1: 0.0384389
k=   3 jbnd=   6 ibnd=   1 iqi=   1 MATEL1: 0.0617658
k=   3 jbnd=   6 ibnd=   2 iqi=   1 MATEL1: 0.0893010
k=   3 jbnd=   6 ibnd=   3 iqi=   1 MATEL1: 0.0384388
k=   3 jbnd=   6 ibnd=   4 iqi=   1 MATEL1: 0.0384004
k=   3 jbnd=   7 ibnd=   1 iqi=   1 MATEL1: 0.0741099
k=   3 jbnd=   7 ibnd=   2 iqi=   1 MATEL1: 0.0740352
k=   3 jbnd=   7 ibnd=   3 iqi=   1 MATEL1: 0.0404114
k=   3 jbnd=   7 ibnd=   4 iqi=   1 MATEL1: 0.1100633
k=   3 jbnd=   8 ibnd=   1 iqi=   1 MATEL1: 0.0740341
k=   3 jbnd=   8 ibnd=   2 iqi=   1 MATEL1: 0.0741112
k=   3 jbnd=   8 ibnd=   3 iqi=   1 MATEL1: 0.1100636
k=   3 jbnd=   8 ibnd=   4 iqi=   1 MATEL1: 0.0404114

     total cpu time spent up to now is        0.9 secs

     total energy              =     -15.64704111 Ry
     Harris-Foulkes estimate   =     -15.64704189 Ry
     estimated scf accuracy    <       0.00000186 Ry

     iteration #  2     ecut=    20.00 Ry     beta=0.70
     Davidson diagonalization with overlap
     ethr =  2.33E-08,  avg # of iterations =  1.0
k=   1 jbnd=   1 ibnd=   1 iqi=   1 MATEL1: 0.7956817
k=   1 jbnd=   1 ibnd=   2 iqi=   1 MATEL1: 0.1282653
k=   1 jbnd=   1 ibnd=   3 iqi=   1 MATEL1: 0.1282653
k=   1 jbnd=   1 ibnd=   4 iqi=   1 MATEL1: 0.1282653
k=   1 jbnd=   2 ibnd=   1 iqi=   1 MATEL1: 0.1281434
k=   1 jbnd=   2 ibnd=   2 iqi=   1 MATEL1: 0.6614508
k=   1 jbnd=   2 ibnd=   3 iqi=   1 MATEL1: 0.3554968
k=   1 jbnd=   2 ibnd=   4 iqi=   1 MATEL1: 0.0574803
k=   1 jbnd=   3 ibnd=   1 iqi=   1 MATEL1: 0.1281434
k=   1 jbnd=   3 ibnd=   2 iqi=   1 MATEL1: 0.3470092
k=   1 jbnd=   3 ibnd=   3 iqi=   1 MATEL1: 0.6365497
k=   1 jbnd=   3 ibnd=   4 iqi=   1 MATEL1: 0.0908690
k=   1 jbnd=   4 ibnd=   1 iqi=   1 MATEL1: 0.1281434
k=   1 jbnd=   4 ibnd=   2 iqi=   1 MATEL1: 0.0659679
k=   1 jbnd=   4 ibnd=   3 iqi=   1 MATEL1: 0.0823814
k=   1 jbnd=   4 ibnd=   4 iqi=   1 MATEL1: 0.9260785
k=   1 jbnd=   5 ibnd=   1 iqi=   1 MATEL1: 0.0986650
k=   1 jbnd=   5 ibnd=   2 iqi=   1 MATEL1: 0.0539301
k=   1 jbnd=   5 ibnd=   3 iqi=   1 MATEL1: 0.0478296
k=   1 jbnd=   5 ibnd=   4 iqi=   1 MATEL1: 0.0556637
k=   1 jbnd=   6 ibnd=   1 iqi=   1 MATEL1: 0.0986650
k=   1 jbnd=   6 ibnd=   2 iqi=   1 MATEL1: 0.0473031
k=   1 jbnd=   6 ibnd=   3 iqi=   1 MATEL1: 0.0609360
k=   1 jbnd=   6 ibnd=   4 iqi=   1 MATEL1: 0.0491841
k=   1 jbnd=   7 ibnd=   1 iqi=   1 MATEL1: 0.0986650
k=   1 jbnd=   7 ibnd=   2 iqi=   1 MATEL1: 0.0561904
k=   1 jbnd=   7 ibnd=   3 iqi=   1 MATEL1: 0.0486582
k=   1 jbnd=   7 ibnd=   4 iqi=   1 MATEL1: 0.0525747
k=   1 jbnd=   8 ibnd=   1 iqi=   1 MATEL1: 0.1205589
k=   1 jbnd=   8 ibnd=   2 iqi=   1 MATEL1: 0.0590809
k=   1 jbnd=   8 ibnd=   3 iqi=   1 MATEL1: 0.0590830
k=   1 jbnd=   8 ibnd=   4 iqi=   1 MATEL1: 0.0590808
k=   2 jbnd=   1 ibnd=   1 iqi=   1 MATEL1: 0.8451986
k=   2 jbnd=   1 ibnd=   2 iqi=   1 MATEL1: 0.0482827
k=   2 jbnd=   1 ibnd=   3 iqi=   1 MATEL1: 0.1423372
k=   2 jbnd=   1 ibnd=   4 iqi=   1 MATEL1: 0.1423372
k=   2 jbnd=   2 ibnd=   1 iqi=   1 MATEL1: 0.0482265
k=   2 jbnd=   2 ibnd=   2 iqi=   1 MATEL1: 0.9133357
k=   2 jbnd=   2 ibnd=   3 iqi=   1 MATEL1: 0.0705428
k=   2 jbnd=   2 ibnd=   4 iqi=   1 MATEL1: 0.0705428
k=   2 jbnd=   3 ibnd=   1 iqi=   1 MATEL1: 0.1421831
k=   2 jbnd=   3 ibnd=   2 iqi=   1 MATEL1: 0.0706027
k=   2 jbnd=   3 ibnd=   3 iqi=   1 MATEL1: 0.8821899
k=   2 jbnd=   3 ibnd=   4 iqi=   1 MATEL1: 0.0712587
k=   2 jbnd=   4 ibnd=   1 iqi=   1 MATEL1: 0.1421831
k=   2 jbnd=   4 ibnd=   2 iqi=   1 MATEL1: 0.0706027
k=   2 jbnd=   4 ibnd=   3 iqi=   1 MATEL1: 0.0712587
k=   2 jbnd=   4 ibnd=   4 iqi=   1 MATEL1: 0.8821899
k=   2 jbnd=   5 ibnd=   1 iqi=   1 MATEL1: 0.1140315
k=   2 jbnd=   5 ibnd=   2 iqi=   1 MATEL1: 0.0731029
k=   2 jbnd=   5 ibnd=   3 iqi=   1 MATEL1: 0.0344914
k=   2 jbnd=   5 ibnd=   4 iqi=   1 MATEL1: 0.0344914
k=   2 jbnd=   6 ibnd=   1 iqi=   1 MATEL1: 0.1014227
k=   2 jbnd=   6 ibnd=   2 iqi=   1 MATEL1: 0.0350519
k=   2 jbnd=   6 ibnd=   3 iqi=   1 MATEL1: 0.0588106
k=   2 jbnd=   6 ibnd=   4 iqi=   1 MATEL1: 0.0612384
k=   2 jbnd=   7 ibnd=   1 iqi=   1 MATEL1: 0.1014227
k=   2 jbnd=   7 ibnd=   2 iqi=   1 MATEL1: 0.0350519
k=   2 jbnd=   7 ibnd=   3 iqi=   1 MATEL1: 0.0612383
k=   2 jbnd=   7 ibnd=   4 iqi=   1 MATEL1: 0.0588106
k=   2 jbnd=   8 ibnd=   1 iqi=   1 MATEL1: 0.0545806
k=   2 jbnd=   8 ibnd=   2 iqi=   1 MATEL1: 0.0298883
k=   2 jbnd=   8 ibnd=   3 iqi=   1 MATEL1: 0.0155495
k=   2 jbnd=   8 ibnd=   4 iqi=   1 MATEL1: 0.0155496
k=   3 jbnd=   1 ibnd=   1 iqi=   1 MATEL1: 0.8552477
k=   3 jbnd=   1 ibnd=   2 iqi=   1 MATEL1: 0.0771682
k=   3 jbnd=   1 ibnd=   3 iqi=   1 MATEL1: 0.1159665
k=   3 jbnd=   1 ibnd=   4 iqi=   1 MATEL1: 0.1151970
k=   3 jbnd=   2 ibnd=   1 iqi=   1 MATEL1: 0.0771678
k=   3 jbnd=   2 ibnd=   2 iqi=   1 MATEL1: 0.8552472
k=   3 jbnd=   2 ibnd=   3 iqi=   1 MATEL1: 0.1151964
k=   3 jbnd=   2 ibnd=   4 iqi=   1 MATEL1: 0.1159659
k=   3 jbnd=   3 ibnd=   1 iqi=   1 MATEL1: 0.1155244
k=   3 jbnd=   3 ibnd=   2 iqi=   1 MATEL1: 0.1154441
k=   3 jbnd=   3 ibnd=   3 iqi=   1 MATEL1: 0.3985300
k=   3 jbnd=   3 ibnd=   4 iqi=   1 MATEL1: 0.4915880
k=   3 jbnd=   4 ibnd=   1 iqi=   1 MATEL1: 0.1154442
k=   3 jbnd=   4 ibnd=   2 iqi=   1 MATEL1: 0.1155240
k=   3 jbnd=   4 ibnd=   3 iqi=   1 MATEL1: 0.4915880
k=   3 jbnd=   4 ibnd=   4 iqi=   1 MATEL1: 0.3985300
k=   3 jbnd=   5 ibnd=   1 iqi=   1 MATEL1: 0.0893046
k=   3 jbnd=   5 ibnd=   2 iqi=   1 MATEL1: 0.0617571
k=   3 jbnd=   5 ibnd=   3 iqi=   1 MATEL1: 0.0383589
k=   3 jbnd=   5 ibnd=   4 iqi=   1 MATEL1: 0.0384791
k=   3 jbnd=   6 ibnd=   1 iqi=   1 MATEL1: 0.0617572
k=   3 jbnd=   6 ibnd=   2 iqi=   1 MATEL1: 0.0893045
k=   3 jbnd=   6 ibnd=   3 iqi=   1 MATEL1: 0.0384790
k=   3 jbnd=   6 ibnd=   4 iqi=   1 MATEL1: 0.0383588
k=   3 jbnd=   7 ibnd=   1 iqi=   1 MATEL1: 0.0741162
k=   3 jbnd=   7 ibnd=   2 iqi=   1 MATEL1: 0.0740392
k=   3 jbnd=   7 ibnd=   3 iqi=   1 MATEL1: 0.0404672
k=   3 jbnd=   7 ibnd=   4 iqi=   1 MATEL1: 0.1100159
k=   3 jbnd=   8 ibnd=   1 iqi=   1 MATEL1: 0.0740392
k=   3 jbnd=   8 ibnd=   2 iqi=   1 MATEL1: 0.0741170
k=   3 jbnd=   8 ibnd=   3 iqi=   1 MATEL1: 0.1100165
k=   3 jbnd=   8 ibnd=   4 iqi=   1 MATEL1: 0.0404673

     total cpu time spent up to now is        1.0 secs

     End of self-consistent calculation

          k = 0.0000 0.0000 0.0000 (   411 PWs)   bands (ev):

    -7.2386   4.9800   4.9800   4.9801  10.2226  10.2226  10.2226  11.1761

          k = 0.5000-0.5000 0.5000 (   410 PWs)   bands (ev):

    -4.7639  -2.0981   3.7747   3.7747   9.2648  10.8810  10.8810  15.1613

          k = 0.0000-1.0000 0.0000 (   412 PWs)   bands (ev):

    -2.9088  -2.9088   2.0865   2.0865   8.1506   8.1506  17.7835  17.7835

     highest occupied, lowest unoccupied level (ev):     4.9801    8.1506
k=   1 jbnd=   1 ibnd=   1 iqi=   1 MATEL1: 0.7957598
k=   1 jbnd=   1 ibnd=   2 iqi=   1 MATEL1: 0.1282911
k=   1 jbnd=   1 ibnd=   3 iqi=   1 MATEL1: 0.1282911
k=   1 jbnd=   1 ibnd=   4 iqi=   1 MATEL1: 0.1282910
k=   1 jbnd=   2 ibnd=   1 iqi=   1 MATEL1: 0.1282911
k=   1 jbnd=   2 ibnd=   2 iqi=   1 MATEL1: 0.9517858
k=   1 jbnd=   2 ibnd=   3 iqi=   1 MATEL1: 0.0815070
k=   1 jbnd=   2 ibnd=   4 iqi=   1 MATEL1: 0.0415917
k=   1 jbnd=   3 ibnd=   1 iqi=   1 MATEL1: 0.1282911
k=   1 jbnd=   3 ibnd=   2 iqi=   1 MATEL1: 0.0815070
k=   1 jbnd=   3 ibnd=   3 iqi=   1 MATEL1: 0.9419619
k=   1 jbnd=   3 ibnd=   4 iqi=   1 MATEL1: 0.0514156
k=   1 jbnd=   4 ibnd=   1 iqi=   1 MATEL1: 0.1282910
k=   1 jbnd=   4 ibnd=   2 iqi=   1 MATEL1: 0.0415917
k=   1 jbnd=   4 ibnd=   3 iqi=   1 MATEL1: 0.0514156
k=   1 jbnd=   4 ibnd=   4 iqi=   1 MATEL1: 0.9818772
k=   1 jbnd=   5 ibnd=   1 iqi=   1 MATEL1: 0.0986179
k=   1 jbnd=   5 ibnd=   2 iqi=   1 MATEL1: 0.0525744
k=   1 jbnd=   5 ibnd=   3 iqi=   1 MATEL1: 0.0508497
k=   1 jbnd=   5 ibnd=   4 iqi=   1 MATEL1: 0.0537416
k=   1 jbnd=   6 ibnd=   1 iqi=   1 MATEL1: 0.0986179
k=   1 jbnd=   6 ibnd=   2 iqi=   1 MATEL1: 0.0458638
k=   1 jbnd=   6 ibnd=   3 iqi=   1 MATEL1: 0.0632777
k=   1 jbnd=   6 ibnd=   4 iqi=   1 MATEL1: 0.0480243
k=   1 jbnd=   7 ibnd=   1 iqi=   1 MATEL1: 0.0986179
k=   1 jbnd=   7 ibnd=   2 iqi=   1 MATEL1: 0.0587283
k=   1 jbnd=   7 ibnd=   3 iqi=   1 MATEL1: 0.0430387
k=   1 jbnd=   7 ibnd=   4 iqi=   1 MATEL1: 0.0553987
k=   1 jbnd=   8 ibnd=   1 iqi=   1 MATEL1: 0.1206046
k=   1 jbnd=   8 ibnd=   2 iqi=   1 MATEL1: 0.0589590
k=   1 jbnd=   8 ibnd=   3 iqi=   1 MATEL1: 0.0589597
k=   1 jbnd=   8 ibnd=   4 iqi=   1 MATEL1: 0.0589588
k=   2 jbnd=   1 ibnd=   1 iqi=   1 MATEL1: 0.8451637
k=   2 jbnd=   1 ibnd=   2 iqi=   1 MATEL1: 0.0483228
k=   2 jbnd=   1 ibnd=   3 iqi=   1 MATEL1: 0.1422563
k=   2 jbnd=   1 ibnd=   4 iqi=   1 MATEL1: 0.1422563
k=   2 jbnd=   2 ibnd=   1 iqi=   1 MATEL1: 0.0483228
k=   2 jbnd=   2 ibnd=   2 iqi=   1 MATEL1: 0.9129073
k=   2 jbnd=   2 ibnd=   3 iqi=   1 MATEL1: 0.0706381
k=   2 jbnd=   2 ibnd=   4 iqi=   1 MATEL1: 0.0706381
k=   2 jbnd=   3 ibnd=   1 iqi=   1 MATEL1: 0.1422563
k=   2 jbnd=   3 ibnd=   2 iqi=   1 MATEL1: 0.0706381
k=   2 jbnd=   3 ibnd=   3 iqi=   1 MATEL1: 0.8937130
k=   2 jbnd=   3 ibnd=   4 iqi=   1 MATEL1: 0.0597367
k=   2 jbnd=   4 ibnd=   1 iqi=   1 MATEL1: 0.1422563
k=   2 jbnd=   4 ibnd=   2 iqi=   1 MATEL1: 0.0706381
k=   2 jbnd=   4 ibnd=   3 iqi=   1 MATEL1: 0.0597367
k=   2 jbnd=   4 ibnd=   4 iqi=   1 MATEL1: 0.8937130
k=   2 jbnd=   5 ibnd=   1 iqi=   1 MATEL1: 0.1138304
k=   2 jbnd=   5 ibnd=   2 iqi=   1 MATEL1: 0.0729825
k=   2 jbnd=   5 ibnd=   3 iqi=   1 MATEL1: 0.0344435
k=   2 jbnd=   5 ibnd=   4 iqi=   1 MATEL1: 0.0344435
k=   2 jbnd=   6 ibnd=   1 iqi=   1 MATEL1: 0.1014055
k=   2 jbnd=   6 ibnd=   2 iqi=   1 MATEL1: 0.0351252
k=   2 jbnd=   6 ibnd=   3 iqi=   1 MATEL1: 0.0600323
k=   2 jbnd=   6 ibnd=   4 iqi=   1 MATEL1: 0.0598884
k=   2 jbnd=   7 ibnd=   1 iqi=   1 MATEL1: 0.1014055
k=   2 jbnd=   7 ibnd=   2 iqi=   1 MATEL1: 0.0351252
k=   2 jbnd=   7 ibnd=   3 iqi=   1 MATEL1: 0.0598884
k=   2 jbnd=   7 ibnd=   4 iqi=   1 MATEL1: 0.0600323
k=   2 jbnd=   8 ibnd=   1 iqi=   1 MATEL1: 0.0544950
k=   2 jbnd=   8 ibnd=   2 iqi=   1 MATEL1: 0.0299773
k=   2 jbnd=   8 ibnd=   3 iqi=   1 MATEL1: 0.0155461
k=   2 jbnd=   8 ibnd=   4 iqi=   1 MATEL1: 0.0155462
k=   3 jbnd=   1 ibnd=   1 iqi=   1 MATEL1: 0.8552398
k=   3 jbnd=   1 ibnd=   2 iqi=   1 MATEL1: 0.0770122
k=   3 jbnd=   1 ibnd=   3 iqi=   1 MATEL1: 0.1155758
k=   3 jbnd=   1 ibnd=   4 iqi=   1 MATEL1: 0.1154579
k=   3 jbnd=   2 ibnd=   1 iqi=   1 MATEL1: 0.0770122
k=   3 jbnd=   2 ibnd=   2 iqi=   1 MATEL1: 0.8552394
k=   3 jbnd=   2 ibnd=   3 iqi=   1 MATEL1: 0.1154576
k=   3 jbnd=   2 ibnd=   4 iqi=   1 MATEL1: 0.1155755
k=   3 jbnd=   3 ibnd=   1 iqi=   1 MATEL1: 0.1155758
k=   3 jbnd=   3 ibnd=   2 iqi=   1 MATEL1: 0.1154576
k=   3 jbnd=   3 ibnd=   3 iqi=   1 MATEL1: 0.8601782
k=   3 jbnd=   3 ibnd=   4 iqi=   1 MATEL1: 0.0298476
k=   3 jbnd=   4 ibnd=   1 iqi=   1 MATEL1: 0.1154579
k=   3 jbnd=   4 ibnd=   2 iqi=   1 MATEL1: 0.1155755
k=   3 jbnd=   4 ibnd=   3 iqi=   1 MATEL1: 0.0298476
k=   3 jbnd=   4 ibnd=   4 iqi=   1 MATEL1: 0.8601782
k=   3 jbnd=   5 ibnd=   1 iqi=   1 MATEL1: 0.0892652
k=   3 jbnd=   5 ibnd=   2 iqi=   1 MATEL1: 0.0617132
k=   3 jbnd=   5 ibnd=   3 iqi=   1 MATEL1: 0.0384349
k=   3 jbnd=   5 ibnd=   4 iqi=   1 MATEL1: 0.0384535
k=   3 jbnd=   6 ibnd=   1 iqi=   1 MATEL1: 0.0617133
k=   3 jbnd=   6 ibnd=   2 iqi=   1 MATEL1: 0.0892653
k=   3 jbnd=   6 ibnd=   3 iqi=   1 MATEL1: 0.0384534
k=   3 jbnd=   6 ibnd=   4 iqi=   1 MATEL1: 0.0384349
k=   3 jbnd=   7 ibnd=   1 iqi=   1 MATEL1: 0.0741873
k=   3 jbnd=   7 ibnd=   2 iqi=   1 MATEL1: 0.0740724
k=   3 jbnd=   7 ibnd=   3 iqi=   1 MATEL1: 0.0953911
k=   3 jbnd=   7 ibnd=   4 iqi=   1 MATEL1: 0.0550724
k=   3 jbnd=   8 ibnd=   1 iqi=   1 MATEL1: 0.0740723
k=   3 jbnd=   8 ibnd=   2 iqi=   1 MATEL1: 0.0741883
k=   3 jbnd=   8 ibnd=   3 iqi=   1 MATEL1: 0.0550727
k=   3 jbnd=   8 ibnd=   4 iqi=   1 MATEL1: 0.0953915
  -2.30935224843115       -2.30932923906724       -2.30931248242488     
     est. exchange err (dexx)  =       0.00000313 Ry

!    total energy              =     -15.64704438 Ry
     Harris-Foulkes estimate   =     -15.64704437 Ry
     estimated scf accuracy    <       0.00000003 Ry

     The total energy is the sum of the following terms:

     one-electron contribution =       2.56591460 Ry
     hartree contribution      =       1.24177439 Ry
     xc contribution           =      -3.81262849 Ry
     ewald contribution        =     -16.79677788 Ry
     - averaged Fock potential =       2.30932924 Ry
     + Fock energy             =      -1.15465624 Ry
  NOW GO BACK TO REFINE HYBRID CALCULATION

     Self-consistent Calculation

     iteration #  1     ecut=    20.00 Ry     beta=0.70
     Davidson diagonalization with overlap
     ethr =  2.33E-08,  avg # of iterations =  2.0

     Threshold (ethr) on eigenvalues was too large:
     Diagonalizing with lowered threshold

     Davidson diagonalization with overlap
     ethr =  5.88E-10,  avg # of iterations =  1.3
k=   1 jbnd=   1 ibnd=   1 iqi=   1 MATEL1: 0.7957732
k=   1 jbnd=   1 ibnd=   2 iqi=   1 MATEL1: 0.1283146
k=   1 jbnd=   1 ibnd=   3 iqi=   1 MATEL1: 0.1283146
k=   1 jbnd=   1 ibnd=   4 iqi=   1 MATEL1: 0.1283146
k=   1 jbnd=   2 ibnd=   1 iqi=   1 MATEL1: 0.1282951
k=   1 jbnd=   2 ibnd=   2 iqi=   1 MATEL1: 0.9208865
k=   1 jbnd=   2 ibnd=   3 iqi=   1 MATEL1: 0.1108548
k=   1 jbnd=   2 ibnd=   4 iqi=   1 MATEL1: 0.0432143
k=   1 jbnd=   3 ibnd=   1 iqi=   1 MATEL1: 0.1282951
k=   1 jbnd=   3 ibnd=   2 iqi=   1 MATEL1: 0.1183305
k=   1 jbnd=   3 ibnd=   3 iqi=   1 MATEL1: 0.8789325
k=   1 jbnd=   3 ibnd=   4 iqi=   1 MATEL1: 0.0776926
k=   1 jbnd=   4 ibnd=   1 iqi=   1 MATEL1: 0.1282951
k=   1 jbnd=   4 ibnd=   2 iqi=   1 MATEL1: 0.0357386
k=   1 jbnd=   4 ibnd=   3 iqi=   1 MATEL1: 0.0851684
k=   1 jbnd=   4 ibnd=   4 iqi=   1 MATEL1: 0.9540487
k=   1 jbnd=   5 ibnd=   1 iqi=   1 MATEL1: 0.0986183
k=   1 jbnd=   5 ibnd=   2 iqi=   1 MATEL1: 0.0527974
k=   1 jbnd=   5 ibnd=   3 iqi=   1 MATEL1: 0.0505119
k=   1 jbnd=   5 ibnd=   4 iqi=   1 MATEL1: 0.0538593
k=   1 jbnd=   6 ibnd=   1 iqi=   1 MATEL1: 0.0986183
k=   1 jbnd=   6 ibnd=   2 iqi=   1 MATEL1: 0.0457188
k=   1 jbnd=   6 ibnd=   3 iqi=   1 MATEL1: 0.0633928
k=   1 jbnd=   6 ibnd=   4 iqi=   1 MATEL1: 0.0480569
k=   1 jbnd=   7 ibnd=   1 iqi=   1 MATEL1: 0.0986183
k=   1 jbnd=   7 ibnd=   2 iqi=   1 MATEL1: 0.0586527
k=   1 jbnd=   7 ibnd=   3 iqi=   1 MATEL1: 0.0432640
k=   1 jbnd=   7 ibnd=   4 iqi=   1 MATEL1: 0.0552518
k=   1 jbnd=   8 ibnd=   1 iqi=   1 MATEL1: 0.1206059
k=   1 jbnd=   8 ibnd=   2 iqi=   1 MATEL1: 0.0589606
k=   1 jbnd=   8 ibnd=   3 iqi=   1 MATEL1: 0.0589610
k=   1 jbnd=   8 ibnd=   4 iqi=   1 MATEL1: 0.0589605
k=   2 jbnd=   1 ibnd=   1 iqi=   1 MATEL1: 0.8451583
k=   2 jbnd=   1 ibnd=   2 iqi=   1 MATEL1: 0.0483365
k=   2 jbnd=   1 ibnd=   3 iqi=   1 MATEL1: 0.1422643
k=   2 jbnd=   1 ibnd=   4 iqi=   1 MATEL1: 0.1422643
k=   2 jbnd=   2 ibnd=   1 iqi=   1 MATEL1: 0.0483310
k=   2 jbnd=   2 ibnd=   2 iqi=   1 MATEL1: 0.9128247
k=   2 jbnd=   2 ibnd=   3 iqi=   1 MATEL1: 0.0706427
k=   2 jbnd=   2 ibnd=   4 iqi=   1 MATEL1: 0.0706427
k=   2 jbnd=   3 ibnd=   1 iqi=   1 MATEL1: 0.1422429
k=   2 jbnd=   3 ibnd=   2 iqi=   1 MATEL1: 0.0706539
k=   2 jbnd=   3 ibnd=   3 iqi=   1 MATEL1: 0.3156138
k=   2 jbnd=   3 ibnd=   4 iqi=   1 MATEL1: 0.6378314
k=   2 jbnd=   4 ibnd=   1 iqi=   1 MATEL1: 0.1422429
k=   2 jbnd=   4 ibnd=   2 iqi=   1 MATEL1: 0.0706539
k=   2 jbnd=   4 ibnd=   3 iqi=   1 MATEL1: 0.6378313
k=   2 jbnd=   4 ibnd=   4 iqi=   1 MATEL1: 0.3156137
k=   2 jbnd=   5 ibnd=   1 iqi=   1 MATEL1: 0.1138277
k=   2 jbnd=   5 ibnd=   2 iqi=   1 MATEL1: 0.0730087
k=   2 jbnd=   5 ibnd=   3 iqi=   1 MATEL1: 0.0344468
k=   2 jbnd=   5 ibnd=   4 iqi=   1 MATEL1: 0.0344468
k=   2 jbnd=   6 ibnd=   1 iqi=   1 MATEL1: 0.1014022
k=   2 jbnd=   6 ibnd=   2 iqi=   1 MATEL1: 0.0351286
k=   2 jbnd=   6 ibnd=   3 iqi=   1 MATEL1: 0.0567240
k=   2 jbnd=   6 ibnd=   4 iqi=   1 MATEL1: 0.0631962
k=   2 jbnd=   7 ibnd=   1 iqi=   1 MATEL1: 0.1014022
k=   2 jbnd=   7 ibnd=   2 iqi=   1 MATEL1: 0.0351286
k=   2 jbnd=   7 ibnd=   3 iqi=   1 MATEL1: 0.0631962
k=   2 jbnd=   7 ibnd=   4 iqi=   1 MATEL1: 0.0567240
k=   2 jbnd=   8 ibnd=   1 iqi=   1 MATEL1: 0.0544951
k=   2 jbnd=   8 ibnd=   2 iqi=   1 MATEL1: 0.0299756
k=   2 jbnd=   8 ibnd=   3 iqi=   1 MATEL1: 0.0155482
k=   2 jbnd=   8 ibnd=   4 iqi=   1 MATEL1: 0.0155483
k=   3 jbnd=   1 ibnd=   1 iqi=   1 MATEL1: 0.8552161
k=   3 jbnd=   1 ibnd=   2 iqi=   1 MATEL1: 0.0770008
k=   3 jbnd=   1 ibnd=   3 iqi=   1 MATEL1: 0.1155367
k=   3 jbnd=   1 ibnd=   4 iqi=   1 MATEL1: 0.1155020
k=   3 jbnd=   2 ibnd=   1 iqi=   1 MATEL1: 0.0770007
k=   3 jbnd=   2 ibnd=   2 iqi=   1 MATEL1: 0.8552156
k=   3 jbnd=   2 ibnd=   3 iqi=   1 MATEL1: 0.1155017
k=   3 jbnd=   2 ibnd=   4 iqi=   1 MATEL1: 0.1155364
k=   3 jbnd=   3 ibnd=   1 iqi=   1 MATEL1: 0.1155767
k=   3 jbnd=   3 ibnd=   2 iqi=   1 MATEL1: 0.1154336
k=   3 jbnd=   3 ibnd=   3 iqi=   1 MATEL1: 0.8501100
k=   3 jbnd=   3 ibnd=   4 iqi=   1 MATEL1: 0.0398982
k=   3 jbnd=   4 ibnd=   1 iqi=   1 MATEL1: 0.1154340
k=   3 jbnd=   4 ibnd=   2 iqi=   1 MATEL1: 0.1155763
k=   3 jbnd=   4 ibnd=   3 iqi=   1 MATEL1: 0.0398982
k=   3 jbnd=   4 ibnd=   4 iqi=   1 MATEL1: 0.8501100
k=   3 jbnd=   5 ibnd=   1 iqi=   1 MATEL1: 0.0892676
k=   3 jbnd=   5 ibnd=   2 iqi=   1 MATEL1: 0.0617250
k=   3 jbnd=   5 ibnd=   3 iqi=   1 MATEL1: 0.0384355
k=   3 jbnd=   5 ibnd=   4 iqi=   1 MATEL1: 0.0384584
k=   3 jbnd=   6 ibnd=   1 iqi=   1 MATEL1: 0.0617249
k=   3 jbnd=   6 ibnd=   2 iqi=   1 MATEL1: 0.0892676
k=   3 jbnd=   6 ibnd=   3 iqi=   1 MATEL1: 0.0384583
k=   3 jbnd=   6 ibnd=   4 iqi=   1 MATEL1: 0.0384354
k=   3 jbnd=   7 ibnd=   1 iqi=   1 MATEL1: 0.0742090
k=   3 jbnd=   7 ibnd=   2 iqi=   1 MATEL1: 0.0740532
k=   3 jbnd=   7 ibnd=   3 iqi=   1 MATEL1: 0.0858573
k=   3 jbnd=   7 ibnd=   4 iqi=   1 MATEL1: 0.0646101
k=   3 jbnd=   8 ibnd=   1 iqi=   1 MATEL1: 0.0740532
k=   3 jbnd=   8 ibnd=   2 iqi=   1 MATEL1: 0.0742094
k=   3 jbnd=   8 ibnd=   3 iqi=   1 MATEL1: 0.0646102
k=   3 jbnd=   8 ibnd=   4 iqi=   1 MATEL1: 0.0858575

     total cpu time spent up to now is        1.2 secs

     End of self-consistent calculation

          k = 0.0000 0.0000 0.0000 (   411 PWs)   bands (ev):

    -7.2397   4.9773   4.9773   4.9773  10.2232  10.2232  10.2232  11.1764

          k = 0.5000-0.5000 0.5000 (   410 PWs)   bands (ev):

    -4.7639  -2.0982   3.7737   3.7737   9.2655  10.8809  10.8809  15.1606

          k = 0.0000-1.0000 0.0000 (   412 PWs)   bands (ev):

    -2.9084  -2.9084   2.0861   2.0861   8.1502   8.1502  17.7826  17.7826

     highest occupied, lowest unoccupied level (ev):     4.9773    8.1502
k=   1 jbnd=   1 ibnd=   1 iqi=   1 MATEL1: 0.7957867
k=   1 jbnd=   1 ibnd=   2 iqi=   1 MATEL1: 0.1283187
k=   1 jbnd=   1 ibnd=   3 iqi=   1 MATEL1: 0.1283187
k=   1 jbnd=   1 ibnd=   4 iqi=   1 MATEL1: 0.1283187
k=   1 jbnd=   2 ibnd=   1 iqi=   1 MATEL1: 0.1283187
k=   1 jbnd=   2 ibnd=   2 iqi=   1 MATEL1: 0.9559313
k=   1 jbnd=   2 ibnd=   3 iqi=   1 MATEL1: 0.0893132
k=   1 jbnd=   2 ibnd=   4 iqi=   1 MATEL1: 0.0297823
k=   1 jbnd=   3 ibnd=   1 iqi=   1 MATEL1: 0.1283187
k=   1 jbnd=   3 ibnd=   2 iqi=   1 MATEL1: 0.0893132
k=   1 jbnd=   3 ibnd=   3 iqi=   1 MATEL1: 0.9177183
k=   1 jbnd=   3 ibnd=   4 iqi=   1 MATEL1: 0.0679953
k=   1 jbnd=   4 ibnd=   1 iqi=   1 MATEL1: 0.1283187
k=   1 jbnd=   4 ibnd=   2 iqi=   1 MATEL1: 0.0297823
k=   1 jbnd=   4 ibnd=   3 iqi=   1 MATEL1: 0.0679953
k=   1 jbnd=   4 ibnd=   4 iqi=   1 MATEL1: 0.9772492
k=   1 jbnd=   5 ibnd=   1 iqi=   1 MATEL1: 0.0986123
k=   1 jbnd=   5 ibnd=   2 iqi=   1 MATEL1: 0.0519237
k=   1 jbnd=   5 ibnd=   3 iqi=   1 MATEL1: 0.0527450
k=   1 jbnd=   5 ibnd=   4 iqi=   1 MATEL1: 0.0524608
k=   1 jbnd=   6 ibnd=   1 iqi=   1 MATEL1: 0.0986123
k=   1 jbnd=   6 ibnd=   2 iqi=   1 MATEL1: 0.0463927
k=   1 jbnd=   6 ibnd=   3 iqi=   1 MATEL1: 0.0635302
k=   1 jbnd=   6 ibnd=   4 iqi=   1 MATEL1: 0.0472066
k=   1 jbnd=   7 ibnd=   1 iqi=   1 MATEL1: 0.0986123
k=   1 jbnd=   7 ibnd=   2 iqi=   1 MATEL1: 0.0588135
k=   1 jbnd=   7 ibnd=   3 iqi=   1 MATEL1: 0.0408545
k=   1 jbnd=   7 ibnd=   4 iqi=   1 MATEL1: 0.0574615
k=   1 jbnd=   8 ibnd=   1 iqi=   1 MATEL1: 0.1206159
k=   1 jbnd=   8 ibnd=   2 iqi=   1 MATEL1: 0.0589436
k=   1 jbnd=   8 ibnd=   3 iqi=   1 MATEL1: 0.0589435
k=   1 jbnd=   8 ibnd=   4 iqi=   1 MATEL1: 0.0589435
k=   2 jbnd=   1 ibnd=   1 iqi=   1 MATEL1: 0.8451528
k=   2 jbnd=   1 ibnd=   2 iqi=   1 MATEL1: 0.0483448
k=   2 jbnd=   1 ibnd=   3 iqi=   1 MATEL1: 0.1422509
k=   2 jbnd=   1 ibnd=   4 iqi=   1 MATEL1: 0.1422509
k=   2 jbnd=   2 ibnd=   1 iqi=   1 MATEL1: 0.0483448
k=   2 jbnd=   2 ibnd=   2 iqi=   1 MATEL1: 0.9127423
k=   2 jbnd=   2 ibnd=   3 iqi=   1 MATEL1: 0.0706585
k=   2 jbnd=   2 ibnd=   4 iqi=   1 MATEL1: 0.0706586
k=   2 jbnd=   3 ibnd=   1 iqi=   1 MATEL1: 0.1422509
k=   2 jbnd=   3 ibnd=   2 iqi=   1 MATEL1: 0.0706585
k=   2 jbnd=   3 ibnd=   3 iqi=   1 MATEL1: 0.8937794
k=   2 jbnd=   3 ibnd=   4 iqi=   1 MATEL1: 0.0596613
k=   2 jbnd=   4 ibnd=   1 iqi=   1 MATEL1: 0.1422509
k=   2 jbnd=   4 ibnd=   2 iqi=   1 MATEL1: 0.0706586
k=   2 jbnd=   4 ibnd=   3 iqi=   1 MATEL1: 0.0596613
k=   2 jbnd=   4 ibnd=   4 iqi=   1 MATEL1: 0.8937793
k=   2 jbnd=   5 ibnd=   1 iqi=   1 MATEL1: 0.1138001
k=   2 jbnd=   5 ibnd=   2 iqi=   1 MATEL1: 0.0729918
k=   2 jbnd=   5 ibnd=   3 iqi=   1 MATEL1: 0.0344404
k=   2 jbnd=   5 ibnd=   4 iqi=   1 MATEL1: 0.0344404
k=   2 jbnd=   6 ibnd=   1 iqi=   1 MATEL1: 0.1014018
k=   2 jbnd=   6 ibnd=   2 iqi=   1 MATEL1: 0.0351419
k=   2 jbnd=   6 ibnd=   3 iqi=   1 MATEL1: 0.0652618
k=   2 jbnd=   6 ibnd=   4 iqi=   1 MATEL1: 0.0546431
k=   2 jbnd=   7 ibnd=   1 iqi=   1 MATEL1: 0.1014018
k=   2 jbnd=   7 ibnd=   2 iqi=   1 MATEL1: 0.0351419
k=   2 jbnd=   7 ibnd=   3 iqi=   1 MATEL1: 0.0546431
k=   2 jbnd=   7 ibnd=   4 iqi=   1 MATEL1: 0.0652618
k=   2 jbnd=   8 ibnd=   1 iqi=   1 MATEL1: 0.0544839
k=   2 jbnd=   8 ibnd=   2 iqi=   1 MATEL1: 0.0299959
k=   2 jbnd=   8 ibnd=   3 iqi=   1 MATEL1: 0.0155477
k=   2 jbnd=   8 ibnd=   4 iqi=   1 MATEL1: 0.0155477
k=   3 jbnd=   1 ibnd=   1 iqi=   1 MATEL1: 0.8552157
k=   3 jbnd=   1 ibnd=   2 iqi=   1 MATEL1: 0.0769661
k=   3 jbnd=   1 ibnd=   3 iqi=   1 MATEL1: 0.1155288
k=   3 jbnd=   1 ibnd=   4 iqi=   1 MATEL1: 0.1154869
k=   3 jbnd=   2 ibnd=   1 iqi=   1 MATEL1: 0.0769661
k=   3 jbnd=   2 ibnd=   2 iqi=   1 MATEL1: 0.8552151
k=   3 jbnd=   2 ibnd=   3 iqi=   1 MATEL1: 0.1154864
k=   3 jbnd=   2 ibnd=   4 iqi=   1 MATEL1: 0.1155284
k=   3 jbnd=   3 ibnd=   1 iqi=   1 MATEL1: 0.1155288
k=   3 jbnd=   3 ibnd=   2 iqi=   1 MATEL1: 0.1154864
k=   3 jbnd=   3 ibnd=   3 iqi=   1 MATEL1: 0.8595322
k=   3 jbnd=   3 ibnd=   4 iqi=   1 MATEL1: 0.0304585
k=   3 jbnd=   4 ibnd=   1 iqi=   1 MATEL1: 0.1154869
k=   3 jbnd=   4 ibnd=   2 iqi=   1 MATEL1: 0.1155284
k=   3 jbnd=   4 ibnd=   3 iqi=   1 MATEL1: 0.0304585
k=   3 jbnd=   4 ibnd=   4 iqi=   1 MATEL1: 0.8595322
k=   3 jbnd=   5 ibnd=   1 iqi=   1 MATEL1: 0.0892663
k=   3 jbnd=   5 ibnd=   2 iqi=   1 MATEL1: 0.0617209
k=   3 jbnd=   5 ibnd=   3 iqi=   1 MATEL1: 0.0384382
k=   3 jbnd=   5 ibnd=   4 iqi=   1 MATEL1: 0.0384660
k=   3 jbnd=   6 ibnd=   1 iqi=   1 MATEL1: 0.0617209
k=   3 jbnd=   6 ibnd=   2 iqi=   1 MATEL1: 0.0892663
k=   3 jbnd=   6 ibnd=   3 iqi=   1 MATEL1: 0.0384659
k=   3 jbnd=   6 ibnd=   4 iqi=   1 MATEL1: 0.0384381
k=   3 jbnd=   7 ibnd=   1 iqi=   1 MATEL1: 0.0741590
k=   3 jbnd=   7 ibnd=   2 iqi=   1 MATEL1: 0.0741133
k=   3 jbnd=   7 ibnd=   3 iqi=   1 MATEL1: 0.0822367
k=   3 jbnd=   7 ibnd=   4 iqi=   1 MATEL1: 0.0682311
k=   3 jbnd=   8 ibnd=   1 iqi=   1 MATEL1: 0.0741133
k=   3 jbnd=   8 ibnd=   2 iqi=   1 MATEL1: 0.0741593
k=   3 jbnd=   8 ibnd=   3 iqi=   1 MATEL1: 0.0682312
k=   3 jbnd=   8 ibnd=   4 iqi=   1 MATEL1: 0.0822369
  -2.30931248242488       -2.30929395683271       -2.30927560996582     
     est. exchange err (dexx)  =       0.00000009 Ry

!    total energy              =     -15.64704494 Ry
     Harris-Foulkes estimate   =     -15.64704496 Ry
     estimated scf accuracy    <       0.00000005 Ry

     The total energy is the sum of the following terms:

     one-electron contribution =       2.56625659 Ry
     hartree contribution      =       1.24129393 Ry
     xc contribution           =      -3.81247373 Ry
     ewald contribution        =     -16.79677788 Ry
     - averaged Fock potential =       2.30929396 Ry
     + Fock energy             =      -1.15463780 Ry

     convergence has been achieved in   1 iterations

     Writing output data file si-pbe0.save
 
     init_run     :      0.10s CPU      0.06s WALL (       1 calls)
     electrons    :      4.48s CPU      1.16s WALL (       1 calls)

     Called by init_run:
     wfcinit      :      0.06s CPU      0.02s WALL (       1 calls)
     potinit      :      0.01s CPU      0.01s WALL (       1 calls)

     Called by electrons:
     c_bands      :      3.22s CPU      0.84s WALL (      12 calls)
     sum_band     :      0.14s CPU      0.04s WALL (      12 calls)
     v_of_rho     :      0.22s CPU      0.06s WALL (      13 calls)
     mix_rho      :      0.01s CPU      0.00s WALL (      12 calls)

     Called by c_bands:
     init_us_2    :      0.02s CPU      0.01s WALL (      75 calls)
     cegterg      :      3.15s CPU      0.82s WALL (      36 calls)

     Called by *egterg:
     h_psi        :      3.13s CPU      0.82s WALL (     111 calls)
     g_psi        :      0.01s CPU      0.00s WALL (      72 calls)
     cdiaghg      :      0.05s CPU      0.01s WALL (      96 calls)

     Called by h_psi:
     add_vuspsi   :      0.00s CPU      0.00s WALL (     111 calls)

     General routines
     calbec       :      0.01s CPU      0.00s WALL (     111 calls)
     fft          :      0.04s CPU      0.01s WALL (     138 calls)
     ffts         :      1.35s CPU      0.42s WALL (    4440 calls)
     fftw         :      0.91s CPU      0.23s WALL (    3110 calls)
     davcio       :      0.00s CPU      0.00s WALL (     156 calls)
 
     Parallel routines
     fft_scatter  :      0.29s CPU      0.09s WALL (    7688 calls)
     EXX routines
     exx_grid     :      0.00s CPU      0.00s WALL (       1 calls)
     exxinit      :      0.07s CPU      0.02s WALL (       4 calls)
     vexx         :      2.58s CPU      0.67s WALL (      65 calls)
     exxen2       :      0.78s CPU      0.20s WALL (      10 calls)
 
     PWSCF        :     4.76s CPU         1.29s WALL

 
   This run was terminated on:   0: 8: 4  31Mar2018            

=------------------------------------------------------------------------------=
   JOB DONE.
=------------------------------------------------------------------------------=
