<PP_INFO>
Generated using APE Version-2.2.0
Author: Unknown Generation date: 2013/10/29
Pseudopotential for: W
Exchange-correlation: Perdew-Zunger LDA
    2        The Pseudo was generated with a Fully-Relativistic Calculation
State   n   l    occ     rc         ev
5s0.5   5   0    2.00    2.40     -2.907228
5p1.5   5   1    4.00    2.80     -1.492427
5p0.5   5   1    2.00    2.80     -1.857105
5d2.5   5   2    2.40    1.70     -0.161710
5d1.5   5   2    1.60    1.70     -0.188725
6s0.5   6   0    2.00    2.40     -0.217332
6p1.5   6   1    0.00    2.80     -0.049169
6p0.5   6   1    0.00    2.80     -0.067974
</PP_INFO>
<PP_HEADER>
   0                   Version Number
  W                    Element
   NC                  Norm - Conserving pseudopotential
    F                  Nonlinear Core Correction
 SLA  PZ   NOGX NOGC        Exchange-Correlation functional
   14.00000000000      Z valence
    0.00000000000      Total energy
  0.0000000  0.0000000 Suggested cutoff for wfc and rho
    2                  Max angular momentum component
 1600                  Number of points in mesh
    8    5             Number of Wavefunctions, Number of Projectors
 Wavefunctions         nl  l   occ
                       5s  0  2.00
                       5p  1  4.00
                       5p  1  2.00
                       5d  2  2.40
                       5d  2  1.60
                       6s  0  2.00
                       6p  1  0.00
                       6p  1  0.00
</PP_HEADER>
<PP_MESH>
  <PP_R>
  8.60232504973E-05  8.68293562907E-05  8.76430159320E-05  8.84643002067E-05
  8.92932805637E-05  9.01300291213E-05  9.09746186738E-05  9.18271226973E-05
  9.26876153568E-05  9.35561715120E-05  9.44328667244E-05  9.53177772633E-05
  9.62109801128E-05  9.71125529784E-05  9.80225742938E-05  9.89411232275E-05
  9.98682796902E-05  1.00804124341E-04  1.01748738596E-04  1.02702204632E-04
  1.03664605397E-04  1.04636024618E-04  1.05616546804E-04  1.06606257258E-04
  1.07605242080E-04  1.08613588179E-04  1.09631383277E-04  1.10658715919E-04
  1.11695675479E-04  1.12742352169E-04  1.13798837046E-04  1.14865222021E-04
  1.15941599865E-04  1.17028064220E-04  1.18124709604E-04  1.19231631421E-04
  1.20348925970E-04  1.21476690451E-04  1.22615022976E-04  1.23764022575E-04
  1.24923789209E-04  1.26094423771E-04  1.27276028104E-04  1.28468705003E-04
  1.29672558226E-04  1.30887692505E-04  1.32114213551E-04  1.33352228068E-04
  1.34601843759E-04  1.35863169336E-04  1.37136314530E-04  1.38421390099E-04
  1.39718507842E-04  1.41027780602E-04  1.42349322282E-04  1.43683247851E-04
  1.45029673356E-04  1.46388715932E-04  1.47760493809E-04  1.49145126329E-04
  1.50542733949E-04  1.51953438256E-04  1.53377361977E-04  1.54814628987E-04
  1.56265364325E-04  1.57729694198E-04  1.59207745998E-04  1.60699648312E-04
  1.62205530928E-04  1.63725524853E-04  1.65259762322E-04  1.66808376808E-04
  1.68371503034E-04  1.69949276988E-04  1.71541835929E-04  1.73149318406E-04
  1.74771864263E-04  1.76409614656E-04  1.78062712063E-04  1.79731300299E-04
  1.81415524525E-04  1.83115531261E-04  1.84831468403E-04  1.86563485231E-04
  1.88311732425E-04  1.90076362076E-04  1.91857527700E-04  1.93655384253E-04
  1.95470088141E-04  1.97301797238E-04  1.99150670896E-04  2.01016869960E-04
  2.02900556783E-04  2.04801895239E-04  2.06721050739E-04  2.08658190240E-04
  2.10613482269E-04  2.12587096929E-04  2.14579205916E-04  2.16589982538E-04
  2.18619601725E-04  2.20668240046E-04  2.22736075726E-04  2.24823288660E-04
  2.26930060428E-04  2.29056574310E-04  2.31203015307E-04  2.33369570152E-04
  2.35556427326E-04  2.37763777079E-04  2.39991811442E-04  2.42240724247E-04
  2.44510711142E-04  2.46801969606E-04  2.49114698971E-04  2.51449100437E-04
  2.53805377088E-04  2.56183733912E-04  2.58584377818E-04  2.61007517654E-04
  2.63453364223E-04  2.65922130306E-04  2.68414030677E-04  2.70929282123E-04
  2.73468103461E-04  2.76030715560E-04  2.78617341358E-04  2.81228205882E-04
  2.83863536269E-04  2.86523561783E-04  2.89208513837E-04  2.91918626012E-04
  2.94654134079E-04  2.97415276016E-04  3.00202292034E-04  3.03015424593E-04
  3.05854918425E-04  3.08721020558E-04  3.11613980331E-04  3.14534049421E-04
  3.17481481865E-04  3.20456534079E-04  3.23459464882E-04  3.26490535517E-04
  3.29550009679E-04  3.32638153529E-04  3.35755235726E-04  3.38901527446E-04
  3.42077302403E-04  3.45282836879E-04  3.48518409746E-04  3.51784302485E-04
  3.55080799218E-04  3.58408186729E-04  3.61766754489E-04  3.65156794682E-04
  3.68578602228E-04  3.72032474813E-04  3.75518712912E-04  3.79037619815E-04
  3.82589501655E-04  3.86174667433E-04  3.89793429046E-04  3.93446101312E-04
  3.97133002003E-04  4.00854451865E-04  4.04610774650E-04  4.08402297147E-04
  4.12229349204E-04  4.16092263762E-04  4.19991376879E-04  4.23927027766E-04
  4.27899558809E-04  4.31909315606E-04  4.35956646990E-04  4.40041905066E-04
  4.44165445237E-04  4.48327626235E-04  4.52528810156E-04  4.56769362489E-04
  4.61049652146E-04  4.65370051497E-04  4.69730936402E-04  4.74132686243E-04
  4.78575683956E-04  4.83060316066E-04  4.87586972721E-04  4.92156047724E-04
  4.96767938568E-04  5.01423046471E-04  5.06121776412E-04  5.10864537163E-04
  5.15651741328E-04  5.20483805376E-04  5.25361149681E-04  5.30284198554E-04
  5.35253380283E-04  5.40269127168E-04  5.45331875564E-04  5.50442065910E-04
  5.55600142775E-04  5.60806554894E-04  5.66061755206E-04  5.71366200896E-04
  5.76720353430E-04  5.82124678603E-04  5.87579646570E-04  5.93085731895E-04
  5.98643413588E-04  6.04253175148E-04  6.09915504604E-04  6.15630894559E-04
  6.21399842231E-04  6.27222849498E-04  6.33100422943E-04  6.39033073892E-04
  6.45021318467E-04  6.51065677622E-04  6.57166677195E-04  6.63324847953E-04
  6.69540725635E-04  6.75814850999E-04  6.82147769873E-04  6.88540033198E-04
  6.94992197079E-04  7.01504822830E-04  7.08078477029E-04  7.14713731558E-04
  7.21411163663E-04  7.28171355996E-04  7.34994896670E-04  7.41882379309E-04
  7.48834403099E-04  7.55851572843E-04  7.62934499009E-04  7.70083797786E-04
  7.77300091140E-04  7.84584006861E-04  7.91936178625E-04  7.99357246045E-04
  8.06847854727E-04  8.14408656328E-04  8.22040308611E-04  8.29743475503E-04
  8.37518827153E-04  8.45367039988E-04  8.53288796775E-04  8.61284786679E-04
  8.69355705324E-04  8.77502254850E-04  8.85725143979E-04  8.94025088074E-04
  9.02402809199E-04  9.10859036187E-04  9.19394504701E-04  9.28009957295E-04
  9.36706143484E-04  9.45483819805E-04  9.54343749886E-04  9.63286704509E-04
  9.72313461679E-04  9.81424806692E-04  9.90621532204E-04  9.99904438297E-04
  1.00927433255E-03  1.01873203011E-03  1.02827835377E-03  1.03791413402E-03
  1.04764020914E-03  1.05745742527E-03  1.06736663647E-03  1.07736870479E-03
  1.08746450040E-03  1.09765490159E-03  1.10794079488E-03  1.11832307512E-03
  1.12880264552E-03  1.13938041777E-03  1.15005731210E-03  1.16083425737E-03
  1.17171219112E-03  1.18269205970E-03  1.19377481832E-03  1.20496143115E-03
  1.21625287137E-03  1.22765012130E-03  1.23915417246E-03  1.25076602567E-03
  1.26248669112E-03  1.27431718845E-03  1.28625854689E-03  1.29831180529E-03
  1.31047801224E-03  1.32275822615E-03  1.33515351537E-03  1.34766495824E-03
  1.36029364320E-03  1.37304066892E-03  1.38590714434E-03  1.39889418879E-03
  1.41200293211E-03  1.42523451470E-03  1.43859008767E-03  1.45207081291E-03
  1.46567786319E-03  1.47941242228E-03  1.49327568503E-03  1.50726885750E-03
  1.52139315705E-03  1.53564981244E-03  1.55004006395E-03  1.56456516348E-03
  1.57922637467E-03  1.59402497298E-03  1.60896224585E-03  1.62403949276E-03
  1.63925802538E-03  1.65461916767E-03  1.67012425600E-03  1.68577463924E-03
  1.70157167894E-03  1.71751674938E-03  1.73361123772E-03  1.74985654412E-03
  1.76625408188E-03  1.78280527751E-03  1.79951157092E-03  1.81637441549E-03
  1.83339527823E-03  1.85057563990E-03  1.86791699512E-03  1.88542085254E-03
  1.90308873493E-03  1.92092217932E-03  1.93892273718E-03  1.95709197448E-03
  1.97543147188E-03  1.99394282485E-03  2.01262764382E-03  2.03148755430E-03
  2.05052419704E-03  2.06973922815E-03  2.08913431928E-03  2.10871115773E-03
  2.12847144662E-03  2.14841690502E-03  2.16854926812E-03  2.18887028736E-03
  2.20938173059E-03  2.23008538225E-03  2.25098304348E-03  2.27207653229E-03
  2.29336768376E-03  2.31485835012E-03  2.33655040101E-03  2.35844572354E-03
  2.38054622254E-03  2.40285382066E-03  2.42537045860E-03  2.44809809521E-03
  2.47103870773E-03  2.49419429191E-03  2.51756686220E-03  2.54115845193E-03
  2.56497111348E-03  2.58900691848E-03  2.61326795796E-03  2.63775634253E-03
  2.66247420261E-03  2.68742368856E-03  2.71260697090E-03  2.73802624048E-03
  2.76368370869E-03  2.78958160764E-03  2.81572219035E-03  2.84210773097E-03
  2.86874052495E-03  2.89562288923E-03  2.92275716250E-03  2.95014570534E-03
  2.97779090046E-03  3.00569515288E-03  3.03386089019E-03  3.06229056270E-03
  3.09098664370E-03  3.11995162963E-03  3.14918804036E-03  3.17869841935E-03
  3.20848533389E-03  3.23855137535E-03  3.26889915936E-03  3.29953132607E-03
  3.33045054038E-03  3.36165949214E-03  3.39316089643E-03  3.42495749375E-03
  3.45705205031E-03  3.48944735820E-03  3.52214623571E-03  3.55515152753E-03
  3.58846610500E-03  3.62209286637E-03  3.65603473705E-03  3.69029466986E-03
  3.72487564530E-03  3.75978067179E-03  3.79501278595E-03  3.83057505284E-03
  3.86647056625E-03  3.90270244897E-03  3.93927385305E-03  3.97618796007E-03
  4.01344798142E-03  4.05105715860E-03  4.08901876347E-03  4.12733609855E-03
  4.16601249733E-03  4.20505132451E-03  4.24445597633E-03  4.28422988086E-03
  4.32437649828E-03  4.36489932122E-03  4.40580187500E-03  4.44708771802E-03
  4.48876044200E-03  4.53082367230E-03  4.57328106830E-03  4.61613632363E-03
  4.65939316654E-03  4.70305536023E-03  4.74712670316E-03  4.79161102938E-03
  4.83651220887E-03  4.88183414786E-03  4.92758078922E-03  4.97375611274E-03
  5.02036413550E-03  5.06740891225E-03  5.11489453571E-03  5.16282513696E-03
  5.21120488580E-03  5.26003799109E-03  5.30932870114E-03  5.35908130408E-03
  5.40930012819E-03  5.45998954235E-03  5.51115395635E-03  5.56279782131E-03
  5.61492563008E-03  5.66754191758E-03  5.72065126125E-03  5.77425828141E-03
  5.82836764169E-03  5.88298404940E-03  5.93811225599E-03  5.99375705741E-03
  6.04992329456E-03  6.10661585372E-03  6.16383966692E-03  6.22159971245E-03
  6.27990101522E-03  6.33874864724E-03  6.39814772805E-03  6.45810342515E-03
  6.51862095449E-03  6.57970558086E-03  6.64136261843E-03  6.70359743113E-03
  6.76641543318E-03  6.82982208952E-03  6.89382291630E-03  6.95842348138E-03
  7.02362940476E-03  7.08944635914E-03  7.15588007037E-03  7.22293631793E-03
  7.29062093550E-03  7.35893981138E-03  7.42789888908E-03  7.49750416780E-03
  7.56776170295E-03  7.63867760670E-03  7.71025804846E-03  7.78250925550E-03
  7.85543751340E-03  7.92904916668E-03  8.00335061928E-03  8.07834833517E-03
  8.15404883889E-03  8.23045871611E-03  8.30758461423E-03  8.38543324292E-03
  8.46401137474E-03  8.54332584572E-03  8.62338355592E-03  8.70419147009E-03
  8.78575661824E-03  8.86808609624E-03  8.95118706647E-03  9.03506675842E-03
  9.11973246933E-03  9.20519156481E-03  9.29145147951E-03  9.37851971773E-03
  9.46640385410E-03  9.55511153424E-03  9.64465047540E-03  9.73502846714E-03
  9.82625337205E-03  9.91833312636E-03  1.00112757407E-02  1.01050893007E-02
  1.01997819679E-02  1.02953619801E-02  1.03918376526E-02  1.04892173783E-02
  1.05875096289E-02  1.06867229555E-02  1.07868659894E-02  1.08879474425E-02
  1.09899761087E-02  1.10929608641E-02  1.11969106680E-02  1.13018345637E-02
  1.14077416791E-02  1.15146412278E-02  1.16225425097E-02  1.17314549118E-02
  1.18413879092E-02  1.19523510655E-02  1.20643540343E-02  1.21774065594E-02
  1.22915184758E-02  1.24066997111E-02  1.25229602855E-02  1.26403103133E-02
  1.27587600035E-02  1.28783196609E-02  1.29989996867E-02  1.31208105796E-02
  1.32437629368E-02  1.33678674547E-02  1.34931349299E-02  1.36195762603E-02
  1.37472024458E-02  1.38760245895E-02  1.40060538984E-02  1.41373016846E-02
  1.42697793662E-02  1.44034984683E-02  1.45384706241E-02  1.46747075755E-02
  1.48122211747E-02  1.49510233849E-02  1.50911262815E-02  1.52325420529E-02
  1.53752830017E-02  1.55193615460E-02  1.56647902199E-02  1.58115816755E-02
  1.59597486828E-02  1.61093041321E-02  1.62602610340E-02  1.64126325213E-02
  1.65664318498E-02  1.67216723995E-02  1.68783676757E-02  1.70365313104E-02
  1.71961770632E-02  1.73573188229E-02  1.75199706081E-02  1.76841465689E-02
  1.78498609882E-02  1.80171282825E-02  1.81859630034E-02  1.83563798389E-02
  1.85283936149E-02  1.87020192957E-02  1.88772719863E-02  1.90541669330E-02
  1.92327195250E-02  1.94129452959E-02  1.95948599246E-02  1.97784792369E-02
  1.99638192073E-02  2.01508959596E-02  2.03397257687E-02  2.05303250623E-02
  2.07227104218E-02  2.09168985841E-02  2.11129064428E-02  2.13107510500E-02
  2.15104496173E-02  2.17120195179E-02  2.19154782877E-02  2.21208436269E-02
  2.23281334015E-02  2.25373656449E-02  2.27485585597E-02  2.29617305189E-02
  2.31769000678E-02  2.33940859252E-02  2.36133069856E-02  2.38345823205E-02
  2.40579311801E-02  2.42833729948E-02  2.45109273774E-02  2.47406141242E-02
  2.49724532173E-02  2.52064648258E-02  2.54426693078E-02  2.56810872124E-02
  2.59217392810E-02  2.61646464496E-02  2.64098298502E-02  2.66573108128E-02
  2.69071108676E-02  2.71592517461E-02  2.74137553838E-02  2.76706439215E-02
  2.79299397078E-02  2.81916653003E-02  2.84558434683E-02  2.87224971944E-02
  2.89916496765E-02  2.92633243300E-02  2.95375447894E-02  2.98143349112E-02
  3.00937187750E-02  3.03757206862E-02  3.06603651780E-02  3.09476770135E-02
  3.12376811879E-02  3.15304029303E-02  3.18258677067E-02  3.21241012214E-02
  3.24251294196E-02  3.27289784898E-02  3.30356748657E-02  3.33452452289E-02
  3.36577165108E-02  3.39731158955E-02  3.42914708214E-02  3.46128089845E-02
  3.49371583399E-02  3.52645471049E-02  3.55950037612E-02  3.59285570573E-02
  3.62652360113E-02  3.66050699129E-02  3.69480883266E-02  3.72943210937E-02
  3.76437983353E-02  3.79965504546E-02  3.83526081399E-02  3.87120023668E-02
  3.90747644015E-02  3.94409258030E-02  3.98105184260E-02  4.01835744237E-02
  4.05601262507E-02  4.09402066658E-02  4.13238487345E-02  4.17110858323E-02
  4.21019516476E-02  4.24964801843E-02  4.28947057649E-02  4.32966630337E-02
  4.37023869595E-02  4.41119128390E-02  4.45252762994E-02  4.49425133018E-02
  4.53636601445E-02  4.57887534657E-02  4.62178302470E-02  4.66509278166E-02
  4.70880838525E-02  4.75293363856E-02  4.79747238035E-02  4.84242848533E-02
  4.88780586451E-02  4.93360846557E-02  4.97984027317E-02  5.02650530932E-02
  5.07360763372E-02  5.12115134409E-02  5.16914057658E-02  5.21757950607E-02
  5.26647234659E-02  5.31582335164E-02  5.36563681458E-02  5.41591706900E-02
  5.46666848912E-02  5.51789549013E-02  5.56960252859E-02  5.62179410284E-02
  5.67447475335E-02  5.72764906317E-02  5.78132165826E-02  5.83549720795E-02
  5.89018042533E-02  5.94537606765E-02  6.00108893672E-02  6.05732387937E-02
  6.11408578785E-02  6.17137960024E-02  6.22921030090E-02  6.28758292089E-02
  6.34650253843E-02  6.40597427932E-02  6.46600331739E-02  6.52659487496E-02
  6.58775422327E-02  6.64948668297E-02  6.71179762457E-02  6.77469246891E-02
  6.83817668761E-02  6.90225580357E-02  6.96693539146E-02  7.03222107817E-02
  7.09811854331E-02  7.16463351975E-02  7.23177179405E-02  7.29953920700E-02
  7.36794165413E-02  7.43698508621E-02  7.50667550977E-02  7.57701898764E-02
  7.64802163945E-02  7.71968964219E-02  7.79202923070E-02  7.86504669829E-02
  7.93874839722E-02  8.01314073927E-02  8.08823019632E-02  8.16402330088E-02
  8.24052664669E-02  8.31774688927E-02  8.39569074650E-02  8.47436499923E-02
  8.55377649184E-02  8.63393213286E-02  8.71483889553E-02  8.79650381846E-02
  8.87893400622E-02  8.96213662993E-02  9.04611892794E-02  9.13088820640E-02
  9.21645183995E-02  9.30281727231E-02  9.38999201699E-02  9.47798365787E-02
  9.56679984991E-02  9.65644831982E-02  9.74693686668E-02  9.83827336270E-02
  9.93046575381E-02  1.00235220604E-01  1.01174503782E-01  1.02122588784E-01
  1.03079558091E-01  1.04045494957E-01  1.05020483414E-01  1.06004608283E-01
  1.06997955179E-01  1.08000610520E-01  1.09012661533E-01  1.10034196263E-01
  1.11065303581E-01  1.12106073189E-01  1.13156595629E-01  1.14216962295E-01
  1.15287265434E-01  1.16367598158E-01  1.17458054453E-01  1.18558729185E-01
  1.19669718109E-01  1.20791117876E-01  1.21923026044E-01  1.23065541086E-01
  1.24218762396E-01  1.25382790301E-01  1.26557726066E-01  1.27743671907E-01
  1.28940730998E-01  1.30149007477E-01  1.31368606461E-01  1.32599634051E-01
  1.33842197342E-01  1.35096404432E-01  1.36362364433E-01  1.37640187479E-01
  1.38929984736E-01  1.40231868412E-01  1.41545951766E-01  1.42872349119E-01
  1.44211175863E-01  1.45562548470E-01  1.46926584506E-01  1.48303402637E-01
  1.49693122642E-01  1.51095865420E-01  1.52511753006E-01  1.53940908577E-01
  1.55383456464E-01  1.56839522164E-01  1.58309232349E-01  1.59792714880E-01
  1.61290098813E-01  1.62801514417E-01  1.64327093178E-01  1.65866967818E-01
  1.67421272298E-01  1.68990141840E-01  1.70573712927E-01  1.72172123327E-01
  1.73785512094E-01  1.75414019588E-01  1.77057787484E-01  1.78716958783E-01
  1.80391677827E-01  1.82082090311E-01  1.83788343296E-01  1.85510585218E-01
  1.87248965907E-01  1.89003636596E-01  1.90774749935E-01  1.92562460005E-01
  1.94366922330E-01  1.96188293892E-01  1.98026733144E-01  1.99882400024E-01
  2.01755455968E-01  2.03646063925E-01  2.05554388372E-01  2.07480595326E-01
  2.09424852361E-01  2.11387328619E-01  2.13368194830E-01  2.15367623322E-01
  2.17385788037E-01  2.19422864550E-01  2.21479030079E-01  2.23554463502E-01
  2.25649345375E-01  2.27763857947E-01  2.29898185170E-01  2.32052512726E-01
  2.34227028032E-01  2.36421920264E-01  2.38637380369E-01  2.40873601085E-01
  2.43130776956E-01  2.45409104347E-01  2.47708781464E-01  2.50030008373E-01
  2.52372987011E-01  2.54737921209E-01  2.57125016708E-01  2.59534481177E-01
  2.61966524231E-01  2.64421357450E-01  2.66899194394E-01  2.69400250627E-01
  2.71924743732E-01  2.74472893332E-01  2.77044921105E-01  2.79641050810E-01
  2.82261508301E-01  2.84906521548E-01  2.87576320658E-01  2.90271137893E-01
  2.92991207695E-01  2.95736766699E-01  2.98508053759E-01  3.01305309967E-01
  3.04128778675E-01  3.06978705515E-01  3.09855338420E-01  3.12758927647E-01
  3.15689725798E-01  3.18647987843E-01  3.21633971139E-01  3.24647935456E-01
  3.27690143000E-01  3.30760858431E-01  3.33860348890E-01  3.36988884023E-01
  3.40146736001E-01  3.43334179546E-01  3.46551491954E-01  3.49798953120E-01
  3.53076845562E-01  3.56385454445E-01  3.59725067606E-01  3.63095975580E-01
  3.66498471623E-01  3.69932851742E-01  3.73399414715E-01  3.76898462120E-01
  3.80430298363E-01  3.83995230701E-01  3.87593569270E-01  3.91225627113E-01
  3.94891720207E-01  3.98592167488E-01  4.02327290883E-01  4.06097415334E-01
  4.09902868828E-01  4.13743982427E-01  4.17621090293E-01  4.21534529723E-01
  4.25484641170E-01  4.29471768281E-01  4.33496257922E-01  4.37558460210E-01
  4.41658728540E-01  4.45797419624E-01  4.49974893511E-01  4.54191513628E-01
  4.58447646805E-01  4.62743663311E-01  4.67079936885E-01  4.71456844766E-01
  4.75874767732E-01  4.80334090124E-01  4.84835199889E-01  4.89378488607E-01
  4.93964351528E-01  4.98593187607E-01  5.03265399535E-01  5.07981393779E-01
  5.12741580614E-01  5.17546374158E-01  5.22396192412E-01  5.27291457294E-01
  5.32232594673E-01  5.37220034412E-01  5.42254210400E-01  5.47335560593E-01
  5.52464527050E-01  5.57641555974E-01  5.62867097747E-01  5.68141606973E-01
  5.73465542516E-01  5.78839367540E-01  5.84263549548E-01  5.89738560425E-01
  5.95264876478E-01  6.00842978477E-01  6.06473351697E-01  6.12156485960E-01
  6.17892875680E-01  6.23683019901E-01  6.29527422347E-01  6.35426591459E-01
  6.41381040445E-01  6.47391287320E-01  6.53457854955E-01  6.59581271119E-01
  6.65762068529E-01  6.72000784892E-01  6.78297962954E-01  6.84654150548E-01
  6.91069900640E-01  6.97545771376E-01  7.04082326136E-01  7.10680133576E-01
  7.17339767682E-01  7.24061807819E-01  7.30846838781E-01  7.37695450841E-01
  7.44608239805E-01  7.51585807061E-01  7.58628759633E-01  7.65737710232E-01
  7.72913277313E-01  7.80156085124E-01  7.87466763765E-01  7.94845949237E-01
  8.02294283506E-01  8.09812414548E-01  8.17400996416E-01  8.25060689289E-01
  8.32792159534E-01  8.40596079760E-01  8.48473128882E-01  8.56423992176E-01
  8.64449361337E-01  8.72549934545E-01  8.80726416522E-01  8.88979518592E-01
  8.97309958747E-01  9.05718461704E-01  9.14205758975E-01  9.22772588924E-01
  9.31419696836E-01  9.40147834977E-01  9.48957762666E-01  9.57850246335E-01
  9.66826059598E-01  9.75885983321E-01  9.85030805683E-01  9.94261322254E-01
  1.00357833605E+00  1.01298265763E+00  1.02247510513E+00  1.03205650436E+00
  1.04172768886E+00  1.05148950000E+00  1.06134278702E+00  1.07128840713E+00
  1.08132722554E+00  1.09146011562E+00  1.10168795887E+00  1.11201164510E+00
  1.12243207242E+00  1.13295014737E+00  1.14356678499E+00  1.15428290889E+00
  1.16509945133E+00  1.17601735332E+00  1.18703756467E+00  1.19816104411E+00
  1.20938875933E+00  1.22072168711E+00  1.23216081337E+00  1.24370713329E+00
  1.25536165133E+00  1.26712538142E+00  1.27899934695E+00  1.29098458091E+00
  1.30308212598E+00  1.31529303460E+00  1.32761836907E+00  1.34005920167E+00
  1.35261661469E+00  1.36529170059E+00  1.37808556205E+00  1.39099931210E+00
  1.40403407419E+00  1.41719098229E+00  1.43047118101E+00  1.44387582568E+00
  1.45740608246E+00  1.47106312843E+00  1.48484815170E+00  1.49876235153E+00
  1.51280693840E+00  1.52698313414E+00  1.54129217204E+00  1.55573529691E+00
  1.57031376527E+00  1.58502884540E+00  1.59988181745E+00  1.61487397357E+00
  1.63000661804E+00  1.64528106734E+00  1.66069865029E+00  1.67626070816E+00
  1.69196859481E+00  1.70782367677E+00  1.72382733336E+00  1.73998095685E+00
  1.75628595256E+00  1.77274373895E+00  1.78935574779E+00  1.80612342428E+00
  1.82304822714E+00  1.84013162877E+00  1.85737511536E+00  1.87478018704E+00
  1.89234835799E+00  1.91008115657E+00  1.92798012548E+00  1.94604682186E+00
  1.96428281746E+00  1.98268969874E+00  2.00126906703E+00  2.02002253868E+00
  2.03895174516E+00  2.05805833326E+00  2.07734396518E+00  2.09681031870E+00
  2.11645908733E+00  2.13629198044E+00  2.15631072341E+00  2.17651705782E+00
  2.19691274155E+00  2.21749954893E+00  2.23827927096E+00  2.25925371539E+00
  2.28042470693E+00  2.30179408739E+00  2.32336371581E+00  2.34513546869E+00
  2.36711124008E+00  2.38929294181E+00  2.41168250360E+00  2.43428187327E+00
  2.45709301688E+00  2.48011791892E+00  2.50335858248E+00  2.52681702940E+00
  2.55049530051E+00  2.57439545571E+00  2.59851957424E+00  2.62286975481E+00
  2.64744811581E+00  2.67225679545E+00  2.69729795202E+00  2.72257376401E+00
  2.74808643031E+00  2.77383817044E+00  2.79983122472E+00  2.82606785444E+00
  2.85255034210E+00  2.87928099159E+00  2.90626212837E+00  2.93349609971E+00
  2.96098527488E+00  2.98873204532E+00  3.01673882491E+00  3.04500805015E+00
  3.07354218035E+00  3.10234369789E+00  3.13141510839E+00  3.16075894097E+00
  3.19037774844E+00  3.22027410752E+00  3.25045061909E+00  3.28090990841E+00
  3.31165462533E+00  3.34268744453E+00  3.37401106575E+00  3.40562821403E+00
  3.43754163997E+00  3.46975411991E+00  3.50226845623E+00  3.53508747755E+00
  3.56821403903E+00  3.60165102254E+00  3.63540133700E+00  3.66946791856E+00
  3.70385373090E+00  3.73856176545E+00  3.77359504169E+00  3.80895660740E+00
  3.84464953891E+00  3.88067694137E+00  3.91704194905E+00  3.95374772557E+00
  3.99079746420E+00  4.02819438815E+00  4.06594175080E+00  4.10404283606E+00
  4.14250095857E+00  4.18131946406E+00  4.22050172961E+00  4.26005116392E+00
  4.29997120767E+00  4.34026533376E+00  4.38093704763E+00  4.42198988758E+00
  4.46342742506E+00  4.50525326500E+00  4.54747104608E+00  4.59008444112E+00
  4.63309715732E+00  4.67651293663E+00  4.72033555609E+00  4.76456882811E+00
  4.80921660081E+00  4.85428275840E+00  4.89977122148E+00  4.94568594739E+00
  4.99203093054E+00  5.03881020278E+00  5.08602783374E+00  5.13368793120E+00
  5.18179464141E+00  5.23035214948E+00  5.27936467976E+00  5.32883649615E+00
  5.37877190252E+00  5.42917524310E+00  5.48005090278E+00  5.53140330757E+00
  5.58323692495E+00  5.63555626425E+00  5.68836587709E+00  5.74167035771E+00
  5.79547434340E+00  5.84978251493E+00  5.90459959692E+00  5.95993035826E+00
  6.01577961253E+00  6.07215221842E+00  6.12905308014E+00  6.18648714788E+00
  6.24445941819E+00  6.30297493446E+00  6.36203878732E+00  6.42165611513E+00
  6.48183210439E+00  6.54257199019E+00  6.60388105668E+00  6.66576463755E+00
  6.72822811645E+00  6.79127692747E+00  6.85491655564E+00  6.91915253739E+00
  6.98399046102E+00  7.04943596719E+00  7.11549474945E+00  7.18217255466E+00
  7.24947518357E+00  7.31740849126E+00  7.38597838769E+00  7.45519083821E+00
  7.52505186405E+00  7.59556754287E+00  7.66674400929E+00  7.73858745541E+00
  7.81110413137E+00  7.88430034584E+00  7.95818246665E+00  8.03275692128E+00
  8.10803019745E+00  8.18400884366E+00  8.26069946978E+00  8.33810874764E+00
  8.41624341157E+00  8.49511025900E+00  8.57471615108E+00  8.65506801324E+00
  8.73617283580E+00  8.81803767460E+00  8.90066965160E+00  8.98407595547E+00
  9.06826384229E+00  9.15324063609E+00  9.23901372955E+00  9.32559058464E+00
  9.41297873324E+00  9.50118577780E+00  9.59021939203E+00  9.68008732155E+00
  9.77079738453E+00  9.86235747244E+00  9.95477555068E+00  1.00480596593E+01
  1.01422179137E+01  1.02372585053E+01  1.03331897023E+01  1.04300198504E+01
  1.05277573734E+01  1.06264107742E+01  1.07259886353E+01  1.08264996196E+01
  1.09279524712E+01  1.10303560161E+01  1.11337191631E+01  1.12380509044E+01
  1.13433603166E+01  1.14496565611E+01  1.15569488853E+01  1.16652466234E+01
  1.17745591968E+01  1.18848961154E+01  1.19962669780E+01  1.21086814735E+01
  1.22221493817E+01  1.23366805738E+01  1.24522850135E+01  1.25689727582E+01
  1.26867539592E+01  1.28056388631E+01  1.29256378124E+01  1.30467612466E+01
  1.31690197031E+01  1.32924238179E+01  1.34169843266E+01  1.35427120657E+01
  1.36696179730E+01  1.37977130889E+01  1.39270085572E+01  1.40575156262E+01
  1.41892456494E+01  1.43222100870E+01  1.44564205064E+01  1.45918885834E+01
  1.47286261032E+01  1.48666449617E+01  1.50059571658E+01  1.51465748353E+01
  1.52885102034E+01  1.54317756180E+01  1.55763835426E+01  1.57223465578E+01
  1.58696773616E+01  1.60183887715E+01  1.61684937247E+01  1.63200052798E+01
  1.64729366179E+01  1.66273010434E+01  1.67831119855E+01  1.69403829991E+01
  1.70991277664E+01  1.72593600974E+01  1.74210939320E+01  1.75843433403E+01
  1.77491225245E+01  1.79154458198E+01  1.80833276958E+01  1.82527827575E+01
  1.84238257469E+01  1.85964715442E+01  1.87707351690E+01  1.89466317816E+01
  1.91241766844E+01  1.93033853231E+01  1.94842732883E+01  1.96668563166E+01
  1.98511502920E+01  2.00371712476E+01  2.02249353664E+01  2.04144589832E+01
  2.06057585861E+01  2.07988508173E+01  2.09937524752E+01  2.11904805155E+01
  2.13890520530E+01  2.15894843626E+01  2.17917948812E+01  2.19960012092E+01
  2.22021211117E+01  2.24101725205E+01  2.26201735353E+01  2.28321424254E+01
  2.30460976314E+01  2.32620577667E+01  2.34800416191E+01  2.37000681522E+01
  2.39221565078E+01  2.41463260066E+01  2.43725961507E+01  2.46009866247E+01
  2.48315172978E+01  2.50642082254E+01  2.52990796508E+01  2.55361520069E+01
  2.57754459182E+01  2.60169822024E+01  2.62607818723E+01  2.65068661378E+01
  2.67552564071E+01  2.70059742894E+01  2.72590415962E+01  2.75144803436E+01
  2.77723127538E+01  2.80325612573E+01  2.82952484948E+01  2.85603973192E+01
  2.88280307974E+01  2.90981722127E+01  2.93708450664E+01  2.96460730801E+01
  2.99238801977E+01  3.02042905873E+01  3.04873286437E+01  3.07730189902E+01
  3.10613864810E+01  3.13524562028E+01  3.16462534778E+01  3.19428038653E+01
  3.22421331641E+01  3.25442674148E+01  3.28492329021E+01  3.31570561569E+01
  3.34677639586E+01  3.37813833378E+01  3.40979415783E+01  3.44174662195E+01
  3.47399850589E+01  3.50655261546E+01  3.53941178274E+01  3.57257886637E+01
  3.60605675177E+01  3.63984835139E+01  3.67395660498E+01  3.70838447985E+01
  3.74313497110E+01  3.77821110189E+01  3.81361592373E+01  3.84935251671E+01
  3.88542398979E+01  3.92183348107E+01  3.95858415802E+01  3.99567921785E+01
  4.03312188768E+01  4.07091542489E+01  4.10906311740E+01  4.14756828391E+01
  4.18643427425E+01  4.22566446960E+01  4.26526228287E+01  4.30523115892E+01
  4.34557457491E+01  4.38629604056E+01  4.42739909851E+01  4.46888732457E+01
  4.51076432807E+01  4.55303375217E+01  4.59569927415E+01  4.63876460577E+01
  4.68223349356E+01  4.72610971915E+01  4.77039709963E+01  4.81509948784E+01
  4.86022077274E+01  4.90576487970E+01  4.95173577092E+01  4.99813744569E+01
  5.04497394080E+01  5.09224933086E+01  5.13996772865E+01  5.18813328552E+01
  5.23675019170E+01  5.28582267668E+01  5.33535500960E+01  5.38535149960E+01
  5.43581649620E+01  5.48675438966E+01  5.53816961142E+01  5.59006663441E+01
  5.64244997349E+01  5.69532418582E+01  5.74869387129E+01  5.80256367285E+01
  5.85693827700E+01  5.91182241413E+01  5.96722085897E+01  6.02313843099E+01
  6.07957999482E+01  6.13655046067E+01  6.19405478479E+01  6.25209796983E+01
  6.31068506536E+01  6.36982116824E+01  6.42951142311E+01  6.48976102280E+01
  6.55057520883E+01  6.61195927180E+01  6.67391855193E+01  6.73645843944E+01
  6.79958437509E+01  6.86330185060E+01  6.92761640919E+01  6.99253364598E+01
  7.05805920854E+01  7.12419879738E+01  7.19095816640E+01  7.25834312342E+01
  7.32635953071E+01  7.39501330546E+01  7.46431042029E+01  7.53425690381E+01
  7.60485884113E+01  7.67612237435E+01  7.74805370316E+01  7.82065908533E+01
  7.89394483727E+01  7.96791733458E+01  8.04258301261E+01  8.11794836701E+01