
.Version 9.7.4 of ABINIT 
.(MPI version, prepared for a x86_64_linux_gnu9.4 computer) 

.Copyright (C) 1998-2022 ABINIT group . 
 ABINIT comes with ABSOLUTELY NO WARRANTY.
 It is free software, and you are welcome to redistribute it
 under certain conditions (GNU General Public License,
 see ~abinit/COPYING or http://www.gnu.org/copyleft/gpl.txt).

 ABINIT is a project of the Universite Catholique de Louvain,
 Corning Inc. and other collaborators, see ~abinit/doc/developers/contributors.txt .
 Please read https://docs.abinit.org/theory/acknowledgments for suggested
 acknowledgments of the ABINIT effort.
 For more information, see https://www.abinit.org .

.Starting date : Tue 13 Dec 2022.
- ( at 09h40 )
  
- input  file    -> inputs/01_hchain.abi
- output file    -> output/01_hchain.abo
- root for input  files -> io_dir/01_hchain_i
- root for output files -> io_dir/01_hchain_o


 DATASET    1 : space group P4/m m m (#123); Bravais tP (primitive tetrag.)
================================================================================
 Values of the parameters that define the memory need for DATASET  1.
     intxc =       0    ionmov =       0      iscf =       7    lmnmax =       3
     lnmax =       3     mgfft =      60  mpssoang =       2    mqgrid =    3001
     natom =       2  nloc_mem =       1    nspden =       1   nspinor =       1
    nsppol =       1      nsym =       8    n1xccc =       0    ntypat =       1
    occopt =       1   xclevel =       2
-    mband =           2        mffmem =           1         mkmem =           4
       mpw =        2932          nfft =       57600          nkpt =           4
 For the susceptibility and dielectric matrices, or tddft :
   mgfft =        36  nbnd_in_blk=     1    nfft =     12960     npw =       315
================================================================================
P This job should need less than                      22.038 Mbytes of memory.
  Rough estimation (10% accuracy) of disk space for files :
_ WF disk file :      0.360 Mbytes ; DEN or POT disk file :      0.441 Mbytes.
================================================================================


 DATASET    2 : space group P4/m m m (#123); Bravais tP (primitive tetrag.)
================================================================================
 Values of the parameters that define the memory need for DATASET  2.
     intxc =       0    ionmov =       0      iscf =      -2    lmnmax =       3
     lnmax =       3     mgfft =      60  mpssoang =       2    mqgrid =    3001
     natom =       2  nloc_mem =       1    nspden =       1   nspinor =       1
    nsppol =       1      nsym =       8    n1xccc =       0    ntypat =       1
    occopt =       1   xclevel =       2
-    mband =          10        mffmem =           1         mkmem =           4
       mpw =        2952          nfft =       57600          nkpt =           4
 For the susceptibility and dielectric matrices, or tddft :
   mgfft =        36  nbnd_in_blk=     5    nfft =     12960     npw =       315
================================================================================
P This job should need less than                      13.135 Mbytes of memory.
  Rough estimation (10% accuracy) of disk space for files :
_ WF disk file :      1.804 Mbytes ; DEN or POT disk file :      0.441 Mbytes.
================================================================================


 DATASET    3 : space group P4/m m m (#123); Bravais tP (primitive tetrag.)
================================================================================
 Values of the parameters that define the memory need for DATASET  3 (RF).
     intxc =       0      iscf =      -3    lmnmax =       3     lnmax =       3
     mgfft =      60  mpssoang =       2    mqgrid =    3001     natom =       2
  nloc_mem =       1    nspden =       1   nspinor =       1    nsppol =       1
      nsym =       8    n1xccc =       0    ntypat =       1    occopt =       1
   xclevel =       2
-    mband =           1        mffmem =           1         mkmem =           6
-   mkqmem =           6        mk1mem =           6           mpw =        2952
      nfft =       57600          nkpt =           6
================================================================================
P This job should need less than                      14.125 Mbytes of memory.
  Rough estimation (10% accuracy) of disk space for files :
_ WF disk file :      0.272 Mbytes ; DEN or POT disk file :      0.441 Mbytes.
================================================================================


 DATASET    4 : space group P4/m m m (#123); Bravais tP (primitive tetrag.)
================================================================================
 Values of the parameters that define the memory need for DATASET  4 (RF).
     intxc =       0      iscf =       7    lmnmax =       3     lnmax =       3
     mgfft =      60  mpssoang =       2    mqgrid =    3001     natom =       2
  nloc_mem =       1    nspden =       1   nspinor =       1    nsppol =       1
      nsym =       8    n1xccc =       0    ntypat =       1    occopt =       1
   xclevel =       2
-    mband =           1        mffmem =           1         mkmem =           6
-   mkqmem =           6        mk1mem =           6           mpw =        2952
      nfft =       57600          nkpt =           6
================================================================================
P This job should need less than                      14.565 Mbytes of memory.
  Rough estimation (10% accuracy) of disk space for files :
_ WF disk file :      0.272 Mbytes ; DEN or POT disk file :      0.441 Mbytes.
================================================================================


 DATASET    5 : space group P4/m m m (#123); Bravais tP (primitive tetrag.)
================================================================================
 Values of the parameters that define the memory need for DATASET  5 (RF).
     intxc =       0      iscf =       7    lmnmax =       3     lnmax =       3
     mgfft =      60  mpssoang =       2    mqgrid =    3001     natom =       2
  nloc_mem =       1    nspden =       1   nspinor =       1    nsppol =       1
      nsym =       8    n1xccc =       0    ntypat =       1    occopt =       1
   xclevel =       2
-    mband =           1        mffmem =           1         mkmem =           6
-   mkqmem =           6        mk1mem =           6           mpw =        2952
      nfft =       57600          nkpt =           6
================================================================================
P This job should need less than                      17.711 Mbytes of memory.
  Rough estimation (10% accuracy) of disk space for files :
_ WF disk file :      0.272 Mbytes ; DEN or POT disk file :      0.441 Mbytes.
================================================================================


 DATASET    6 : space group P4/m m m (#123); Bravais tP (primitive tetrag.)
================================================================================
 Values of the parameters that define the memory need for DATASET  6 (RF).
     intxc =       0      iscf =       7    lmnmax =       3     lnmax =       3
     mgfft =      60  mpssoang =       2    mqgrid =    3001     natom =       2
  nloc_mem =       1    nspden =       1   nspinor =       1    nsppol =       1
      nsym =       8    n1xccc =       0    ntypat =       1    occopt =       1
   xclevel =       2
-    mband =           1        mffmem =           1         mkmem =           6
-   mkqmem =           6        mk1mem =           6           mpw =        2952
      nfft =       57600          nkpt =           6
================================================================================
P This job should need less than                      17.711 Mbytes of memory.
  Rough estimation (10% accuracy) of disk space for files :
_ WF disk file :      0.272 Mbytes ; DEN or POT disk file :      0.441 Mbytes.
================================================================================


 DATASET    7 : space group P4/m m m (#123); Bravais tP (primitive tetrag.)
================================================================================
 Values of the parameters that define the memory need for DATASET  7 (RF).
     intxc =       0      iscf =       7    lmnmax =       3     lnmax =       3
     mgfft =      60  mpssoang =       2    mqgrid =    3001     natom =       2
  nloc_mem =       1    nspden =       1   nspinor =       1    nsppol =       1
      nsym =       8    n1xccc =       0    ntypat =       1    occopt =       1
   xclevel =       2
-    mband =           1        mffmem =           1         mkmem =           6
-   mkqmem =           6        mk1mem =           6           mpw =        2952
      nfft =       57600          nkpt =           6
================================================================================
P This job should need less than                      17.711 Mbytes of memory.
  Rough estimation (10% accuracy) of disk space for files :
_ WF disk file :      0.272 Mbytes ; DEN or POT disk file :      0.441 Mbytes.
================================================================================

--------------------------------------------------------------------------------
------------- Echo of variables that govern the present computation ------------
--------------------------------------------------------------------------------
-
- outvars: echo of selected default values                                      
-   iomode0 =  0 , fftalg0 =112 , wfoptalg0 =  0
-
- outvars: echo of global parameters not present in the input file              
-  max_nthreads =    1
-
 -outvars: echo values of preprocessed input variables --------
-          iomode           3
            acell      5.1778500000E+00  1.0000000000E+01  1.0000000000E+01 Bohr
              amu      1.00794000E+00
           diemac      4.50000000E+00
             ecut      1.00000000E+01 Hartree
-          fftalg         112
           getddk1          0
           getddk2          0
           getddk3          0
           getddk4          3
           getddk5          0
           getddk6          0
           getddk7          0
           getden1          0
           getden2          1
           getden3          0
           getden4          0
           getden5          0
           getden6          0
           getden7          0
           getwfk1          0
           getwfk2          0
           getwfk3          1
           getwfk4          1
           getwfk5          1
           getwfk6          1
           getwfk7          1
           iprcel          21
             iscf1          7
             iscf2         -2
             iscf3         -3
             iscf4          7
             iscf5          7
             iscf6          7
             iscf7          7
           istwfk1       2    0    0    3
           istwfk2       1    0    0    1
           istwfk3       1    0    0    1    0    0
           istwfk4       1    0    0    1    0    0
           istwfk5       1    0    0    1    0    0
           istwfk6       1    0    0    1    0    0
           istwfk7       1    0    0    1    0    0
              ixc          11
           jdtset        1    2    3    4    5    6    7
              kpt1     0.00000000E+00  0.00000000E+00  0.00000000E+00
                       1.66666667E-01  0.00000000E+00  0.00000000E+00
                       3.33333333E-01  0.00000000E+00  0.00000000E+00
                       5.00000000E-01  0.00000000E+00  0.00000000E+00
              kpt2     0.00000000E+00  0.00000000E+00  0.00000000E+00
                       1.66666667E-01  0.00000000E+00  0.00000000E+00
                       3.33333333E-01  0.00000000E+00  0.00000000E+00
                       5.00000000E-01  0.00000000E+00  0.00000000E+00
              kpt3     0.00000000E+00  0.00000000E+00  0.00000000E+00
                       1.66666667E-01  0.00000000E+00  0.00000000E+00
                       3.33333333E-01  0.00000000E+00  0.00000000E+00
                       5.00000000E-01  0.00000000E+00  0.00000000E+00
                      -3.33333333E-01  0.00000000E+00  0.00000000E+00
                      -1.66666667E-01  0.00000000E+00  0.00000000E+00
              kpt4     0.00000000E+00  0.00000000E+00  0.00000000E+00
                       1.66666667E-01  0.00000000E+00  0.00000000E+00
                       3.33333333E-01  0.00000000E+00  0.00000000E+00
                       5.00000000E-01  0.00000000E+00  0.00000000E+00
                      -3.33333333E-01  0.00000000E+00  0.00000000E+00
                      -1.66666667E-01  0.00000000E+00  0.00000000E+00
              kpt5     0.00000000E+00  0.00000000E+00  0.00000000E+00
                       1.66666667E-01  0.00000000E+00  0.00000000E+00
                       3.33333333E-01  0.00000000E+00  0.00000000E+00
                       5.00000000E-01  0.00000000E+00  0.00000000E+00
                      -3.33333333E-01  0.00000000E+00  0.00000000E+00
                      -1.66666667E-01  0.00000000E+00  0.00000000E+00
              kpt6     0.00000000E+00  0.00000000E+00  0.00000000E+00
                       1.66666667E-01  0.00000000E+00  0.00000000E+00
                       3.33333333E-01  0.00000000E+00  0.00000000E+00
                       5.00000000E-01  0.00000000E+00  0.00000000E+00
                      -3.33333333E-01  0.00000000E+00  0.00000000E+00
                      -1.66666667E-01  0.00000000E+00  0.00000000E+00
              kpt7     0.00000000E+00  0.00000000E+00  0.00000000E+00
                       1.66666667E-01  0.00000000E+00  0.00000000E+00
                       3.33333333E-01  0.00000000E+00  0.00000000E+00
                       5.00000000E-01  0.00000000E+00  0.00000000E+00
                      -3.33333333E-01  0.00000000E+00  0.00000000E+00
                      -1.66666667E-01  0.00000000E+00  0.00000000E+00
           kptopt1          1
           kptopt2          1
           kptopt3          3
           kptopt4          3
           kptopt5          3
           kptopt6          3
           kptopt7          3
         kptrlatt        6    0    0      0    1    0      0    0    1
          kptrlen      3.10671000E+01
P           mkmem1          4
P           mkmem2          4
P           mkmem3          6
P           mkmem4          6
P           mkmem5          6
P           mkmem6          6
P           mkmem7          6
P          mkqmem1          4
P          mkqmem2          4
P          mkqmem3          6
P          mkqmem4          6
P          mkqmem5          6
P          mkqmem6          6
P          mkqmem7          6
P          mk1mem1          4
P          mk1mem2          4
P          mk1mem3          6
P          mk1mem4          6
P          mk1mem5          6
P          mk1mem6          6
P          mk1mem7          6
            natom           2
            nband1          2
            nband2         10
            nband3          1
            nband4          1
            nband5          1
            nband6          1
            nband7          1
           nbdbuf           2
           ndtset           7
            ngfft          16      60      60
             nkpt1          4
             nkpt2          4
             nkpt3          6
             nkpt4          6
             nkpt5          6
             nkpt6          6
             nkpt7          6
             nqpt1          0
             nqpt2          0
             nqpt3          1
             nqpt4          1
             nqpt5          1
             nqpt6          1
             nqpt7          1
            nstep1        100
            nstep2        100
            nstep3        200
            nstep4        200
            nstep5        200
            nstep6        200
            nstep7        200
             nsym           8
           ntypat           1
              occ1     2.000000  0.000000
              occ3     2.000000
              occ4     2.000000
              occ5     2.000000
              occ6     2.000000
              occ7     2.000000
        optdriver1          0
        optdriver2          0
        optdriver3          1
        optdriver4          1
        optdriver5          1
        optdriver6          1
        optdriver7          1
           prtpot1          0
           prtpot2          0
           prtpot3          1
           prtpot4          1
           prtpot5          1
           prtpot6          1
           prtpot7          1
          prtkbff1          0
          prtkbff2          1
          prtkbff3          0
          prtkbff4          0
          prtkbff5          0
          prtkbff6          0
          prtkbff7          0
              qpt1     0.00000000E+00  0.00000000E+00  0.00000000E+00
              qpt2     0.00000000E+00  0.00000000E+00  0.00000000E+00
              qpt3     0.00000000E+00  0.00000000E+00  0.00000000E+00
              qpt4     0.00000000E+00  0.00000000E+00  0.00000000E+00
              qpt5     1.66666667E-01  0.00000000E+00  0.00000000E+00
              qpt6     3.33333333E-01  0.00000000E+00  0.00000000E+00
              qpt7     5.00000000E-01  0.00000000E+00  0.00000000E+00
          rfatpol           1       2
            rfdir           1       1       1
           rfelfd1          0
           rfelfd2          0
           rfelfd3          2
           rfelfd4          3
           rfelfd5          0
           rfelfd6          0
           rfelfd7          0
           rfphon1          0
           rfphon2          0
           rfphon3          0
           rfphon4          1
           rfphon5          1
           rfphon6          1
           rfphon7          1
            rprim      1.0000000000E+00  0.0000000000E+00  0.0000000000E+00
                       0.0000000000E+00  1.9313000000E+00  0.0000000000E+00
                       0.0000000000E+00  0.0000000000E+00  1.9313000000E+00
          spgroup         123
        symmorphi           0
           symrel      1  0  0   0  1  0   0  0  1       1  0  0   0  1  0   0  0 -1
                       1  0  0   0 -1  0   0  0 -1       1  0  0   0 -1  0   0  0  1
                       1  0  0   0  0  1   0  1  0       1  0  0   0  0  1   0 -1  0
                       1  0  0   0  0 -1   0 -1  0       1  0  0   0  0 -1   0  1  0
           toldfe1     1.00000000E-06 Hartree
           toldfe2     0.00000000E+00 Hartree
           toldfe3     0.00000000E+00 Hartree
           toldfe4     0.00000000E+00 Hartree
           toldfe5     0.00000000E+00 Hartree
           toldfe6     0.00000000E+00 Hartree
           toldfe7     0.00000000E+00 Hartree
           tolwfr1     0.00000000E+00
           tolwfr2     1.00000000E-12
           tolwfr3     1.00000000E-12
           tolwfr4     1.00000000E-12
           tolwfr5     1.00000000E-12
           tolwfr6     1.00000000E-12
           tolwfr7     1.00000000E-12
            typat      1  1
              wtk1       0.16667    0.33333    0.33333    0.16667
              wtk2       0.16667    0.33333    0.33333    0.16667
              wtk3       0.16667    0.16667    0.16667    0.16667    0.16667    0.16667
              wtk4       0.16667    0.16667    0.16667    0.16667    0.16667    0.16667
              wtk5       0.16667    0.16667    0.16667    0.16667    0.16667    0.16667
              wtk6       0.16667    0.16667    0.16667    0.16667    0.16667    0.16667
              wtk7       0.16667    0.16667    0.16667    0.16667    0.16667    0.16667
           xangst      0.0000000000E+00  0.0000000000E+00  0.0000000000E+00
                       7.4000007658E-01  0.0000000000E+00  0.0000000000E+00
            xcart      0.0000000000E+00  0.0000000000E+00  0.0000000000E+00
                       1.3983974831E+00  0.0000000000E+00  0.0000000000E+00
             xred      0.0000000000E+00  0.0000000000E+00  0.0000000000E+00
                       2.7007300000E-01  0.0000000000E+00  0.0000000000E+00
            znucl        1.00000

================================================================================

 chkinp: Checking input parameters for consistency, jdtset=   1.

 chkinp: Checking input parameters for consistency, jdtset=   2.

 chkinp: Checking input parameters for consistency, jdtset=   3.

 chkinp: Checking input parameters for consistency, jdtset=   4.

 chkinp: Checking input parameters for consistency, jdtset=   5.

 chkinp: Checking input parameters for consistency, jdtset=   6.

 chkinp: Checking input parameters for consistency, jdtset=   7.

================================================================================
== DATASET  1 ==================================================================
-   mpi_nproc: 1, omp_nthreads: 1 (-1 if OMP is not activated)


--- !DatasetInfo
iteration_state: {dtset: 1, }
dimensions: {natom: 2, nkpt: 4, mband: 2, nsppol: 1, nspinor: 1, nspden: 1, mpw: 2932, }
cutoff_energies: {ecut:  10.0, pawecutdg:  -1.0, }
electrons: {nelect:   2.00000000E+00, charge:   0.00000000E+00, occopt:   1.00000000E+00, tsmear:   1.00000000E-02, }
meta: {optdriver: 0, ionmov: 0, optcell: 0, iscf: 7, paral_kgb: 0, }
...

 Exchange-correlation functional for the present dataset will be:
  GGA: Perdew-Burke-Ernzerhof functional - ixc=11
 Citation for XC functional:
  J.P.Perdew, K.Burke, M.Ernzerhof, PRL 77, 3865 (1996)

 Real(R)+Recip(G) space primitive vectors, cartesian coordinates (Bohr,Bohr^-1):
 R(1)=  5.1778500  0.0000000  0.0000000  G(1)=  0.1931304  0.0000000  0.0000000
 R(2)=  0.0000000 19.3130000  0.0000000  G(2)=  0.0000000  0.0517786  0.0000000
 R(3)=  0.0000000  0.0000000 19.3130000  G(3)=  0.0000000  0.0000000  0.0517786
 Unit cell volume ucvol=  1.9312965E+03 bohr^3
 Angles (23,13,12)=  9.00000000E+01  9.00000000E+01  9.00000000E+01 degrees

 getcut: wavevector=  0.0000  0.0000  0.0000  ngfft=  16  60  60
         ecut(hartree)=     10.000   => boxcut(ratio)=   2.17073

--- Pseudopotential description ------------------------------------------------
- pspini: atom type   1  psp file is pseudo/H.psp8
- pspatm: opening atomic psp file    pseudo/H.psp8
- H     ONCVPSP-3.2.3.1  r_core=   1.00957   0.70586
-  1.00000   1.00000    170501                znucl, zion, pspdat
    8   11    1    4       300   0.00000      pspcod,pspxc,lmax,lloc,mmax,r2well
    2.99000000000000    0.00000000000000    0.00000000000000   rchrg,fchrg,qchrg
     nproj     2     1
     extension_switch     1
  pspatm : epsatm=    0.36235122
         --- l  ekb(1:nproj) -->
             0   -1.701123   -0.534484
             1   -0.503321
 pspatm: atomic psp has been read  and splines computed

   1.44940486E+00                                ecore*ucvol(ha*bohr**3)
--------------------------------------------------------------------------------

_setup2: Arith. and geom. avg. npw (full set) are    2927.500    2927.466

================================================================================

--- !BeginCycle
iteration_state: {dtset: 1, }
solver: {iscf: 7, nstep: 100, nline: 4, wfoptalg: 0, }
tolerances: {toldfe: 1.00E-06, }
...

     iter   Etot(hartree)      deltaE(h)  residm     vres2
 ETOT  1  -1.1377007357014    -1.138E+00 8.786E-04 4.288E+01
 ETOT  2  -1.1435982166786    -5.897E-03 8.488E-08 4.892E+00
 ETOT  3  -1.1436123924071    -1.418E-05 3.110E-07 2.576E-01
 ETOT  4  -1.1436128129943    -4.206E-07 8.097E-09 3.601E-03
 ETOT  5  -1.1436128230902    -1.010E-08 3.129E-10 8.626E-05

 At SCF step    5, etot is converged : 
  for the second time, diff in etot=  1.010E-08 < toldfe=  1.000E-06

 Cartesian components of stress tensor (hartree/bohr^3)
  sigma(1 1)= -1.16988508E-08  sigma(3 2)=  0.00000000E+00
  sigma(2 2)=  1.51756241E-05  sigma(3 1)=  0.00000000E+00
  sigma(3 3)=  1.51756241E-05  sigma(2 1)=  0.00000000E+00


--- !ResultsGS
iteration_state: {dtset: 1, }
comment   : Summary of ground state results
lattice_vectors:
- [  5.1778500,   0.0000000,   0.0000000, ]
- [  0.0000000,  19.3130000,   0.0000000, ]
- [  0.0000000,   0.0000000,  19.3130000, ]
lattice_lengths: [   5.17785,   19.31300,   19.31300, ]
lattice_angles: [ 90.000,  90.000,  90.000, ] # degrees, (23, 13, 12)
lattice_volume:   1.9312965E+03
convergence: {deltae: -1.010E-08, res2:  8.626E-05, residm:  3.129E-10, diffor: null, }
etotal    :  -1.14361282E+00
entropy   :   0.00000000E+00
fermie    :  -3.46388639E-01
cartesian_stress_tensor: # hartree/bohr^3
- [ -1.16988508E-08,   0.00000000E+00,   0.00000000E+00, ]
- [  0.00000000E+00,   1.51756241E-05,   0.00000000E+00, ]
- [  0.00000000E+00,   0.00000000E+00,   1.51756241E-05, ]
pressure_GPa:  -2.9754E-01
xred      :
- [  0.0000E+00,   0.0000E+00,   0.0000E+00,  H]
- [  2.7007E-01,   0.0000E+00,   0.0000E+00,  H]
cartesian_forces: # hartree/bohr
- [ -1.39899263E-02,  -0.00000000E+00,  -0.00000000E+00, ]
- [  1.39899263E-02,  -0.00000000E+00,  -0.00000000E+00, ]
force_length_stats: {min:   1.39899263E-02, max:   1.39899263E-02, mean:   1.39899263E-02, }
...

 Integrated electronic density in atomic spheres:
 ------------------------------------------------
 Atom  Sphere_radius  Integrated_density
    1        2.00000          1.50665679
    2        2.00000          1.48224769
================================================================================

 ----iterations are completed or convergence reached----

 Mean square residual over all n,k,spin=   10.897E-11; max=  31.294E-11
 reduced coordinates (array xred) for    2 atoms
       0.000000000000      0.000000000000      0.000000000000
       0.270073000000      0.000000000000      0.000000000000
 rms dE/dt=  4.1822E-02; max dE/dt=  7.2414E-02; dE/dt below (all hartree)
    1       0.072414180764      0.000000000000      0.000000000000
    2      -0.072461298857      0.000000000000      0.000000000000

 cartesian coordinates (angstrom) at end:
    1      0.00000000000000     0.00000000000000     0.00000000000000
    2      0.74000007657968     0.00000000000000     0.00000000000000

 cartesian forces (hartree/bohr) at end:
    1     -0.01398992628416    -0.00000000000000    -0.00000000000000
    2      0.01398992628416    -0.00000000000000    -0.00000000000000
 frms,max,avg= 8.0770877E-03 1.3989926E-02   4.550E-06  0.000E+00  0.000E+00 h/b

 cartesian forces (eV/Angstrom) at end:
    1     -0.71939087343848    -0.00000000000000    -0.00000000000000
    2      0.71939087343848    -0.00000000000000    -0.00000000000000
 frms,max,avg= 4.1534051E-01 7.1939087E-01   2.340E-04  0.000E+00  0.000E+00 e/A
 length scales=  5.177850000000 10.000000000000 10.000000000000 bohr
              =  2.740000209498  5.291772085900  5.291772085900 angstroms
 prteigrs : about to open file io_dir/01_hchain_o_DS1_EIG
 Fermi (or HOMO) energy (hartree) =  -0.34639   Average Vxc (hartree)=  -0.03280
 Eigenvalues (hartree) for nkpt=   4  k points:
 kpt#   1, nband=  2, wtk=  0.16667, kpt=  0.0000  0.0000  0.0000 (reduced coord)
  -0.41022   -0.00564
 prteigrs : prtvol=0 or 1, do not print more k-points.


--- !EnergyTerms
iteration_state     : {dtset: 1, }
comment             : Components of total free energy in Hartree
kinetic             :  1.06692742619601E+00
hartree             :  1.24426827272118E+00
xc                  : -6.84041601159338E-01
Ewald energy        :  6.66228385049714E-01
psp_core            :  7.50482843750041E-04
local_psp           : -3.26483168731086E+00
non_local_psp       : -1.72914101430642E-01
total_energy        : -1.14361282309018E+00
total_energy_eV     : -3.11192875163252E+01
band_energy         : -7.61223978575792E-01
...


 Cartesian components of stress tensor (hartree/bohr^3)
  sigma(1 1)= -1.16988508E-08  sigma(3 2)=  0.00000000E+00
  sigma(2 2)=  1.51756241E-05  sigma(3 1)=  0.00000000E+00
  sigma(3 3)=  1.51756241E-05  sigma(2 1)=  0.00000000E+00

-Cartesian components of stress tensor (GPa)         [Pressure= -2.9754E-01 GPa]
- sigma(1 1)= -3.44192017E-04  sigma(3 2)=  0.00000000E+00
- sigma(2 2)=  4.46482200E-01  sigma(3 1)=  0.00000000E+00
- sigma(3 3)=  4.46482200E-01  sigma(2 1)=  0.00000000E+00

================================================================================
== DATASET  2 ==================================================================
-   mpi_nproc: 1, omp_nthreads: 1 (-1 if OMP is not activated)


--- !DatasetInfo
iteration_state: {dtset: 2, }
dimensions: {natom: 2, nkpt: 4, mband: 10, nsppol: 1, nspinor: 1, nspden: 1, mpw: 2952, }
cutoff_energies: {ecut:  10.0, pawecutdg:  -1.0, }
electrons: {nelect:   2.00000000E+00, charge:   0.00000000E+00, occopt:   1.00000000E+00, tsmear:   1.00000000E-02, }
meta: {optdriver: 0, ionmov: 0, optcell: 0, iscf: -2, paral_kgb: 0, }
...

 mkfilename : getden/=0, take file _DEN from output of DATASET   1.

 Exchange-correlation functional for the present dataset will be:
  GGA: Perdew-Burke-Ernzerhof functional - ixc=11
 Citation for XC functional:
  J.P.Perdew, K.Burke, M.Ernzerhof, PRL 77, 3865 (1996)

 Real(R)+Recip(G) space primitive vectors, cartesian coordinates (Bohr,Bohr^-1):
 R(1)=  5.1778500  0.0000000  0.0000000  G(1)=  0.1931304  0.0000000  0.0000000
 R(2)=  0.0000000 19.3130000  0.0000000  G(2)=  0.0000000  0.0517786  0.0000000
 R(3)=  0.0000000  0.0000000 19.3130000  G(3)=  0.0000000  0.0000000  0.0517786
 Unit cell volume ucvol=  1.9312965E+03 bohr^3
 Angles (23,13,12)=  9.00000000E+01  9.00000000E+01  9.00000000E+01 degrees

 getcut: wavevector=  0.0000  0.0000  0.0000  ngfft=  16  60  60
         ecut(hartree)=     10.000   => boxcut(ratio)=   2.17073
--------------------------------------------------------------------------------


================================================================================
 prteigrs : about to open file io_dir/01_hchain_o_DS2_EIG
 Non-SCF case, kpt    1 (  0.00000  0.00000  0.00000), residuals and eigenvalues=
  4.88E-13  2.67E-13  3.99E-13  2.34E-14  8.68E-13  2.38E-14  4.84E-13  8.33E-14
  1.10E-13  1.08E-12
 -4.1022E-01 -5.6362E-03  1.1333E-02  1.1333E-02  4.4707E-02  5.7872E-02
  7.9951E-02  7.9951E-02  8.8422E-02  1.2060E-01
 prteigrs : prtvol=0 or 1, do not print more k-points.



--- !ResultsGS
iteration_state: {dtset: 2, }
comment   : Summary of ground state results
lattice_vectors:
- [  5.1778500,   0.0000000,   0.0000000, ]
- [  0.0000000,  19.3130000,   0.0000000, ]
- [  0.0000000,   0.0000000,  19.3130000, ]
lattice_lengths: [   5.17785,   19.31300,   19.31300, ]
lattice_angles: [ 90.000,  90.000,  90.000, ] # degrees, (23, 13, 12)
lattice_volume:   1.9312965E+03
convergence: {deltae:  0.000E+00, res2:  0.000E+00, residm:  9.761E-13, diffor:  0.000E+00, }
etotal    :  -1.14361282E+00
entropy   :   0.00000000E+00
fermie    :  -3.46388639E-01
cartesian_stress_tensor: null
pressure_GPa: null
xred      :
- [  0.0000E+00,   0.0000E+00,   0.0000E+00,  H]
- [  2.7007E-01,   0.0000E+00,   0.0000E+00,  H]
cartesian_forces: null
force_length_stats: {min: null, max: null, mean: null, }
...

 Integrated electronic density in atomic spheres:
 ------------------------------------------------
 Atom  Sphere_radius  Integrated_density
    1        2.00000          1.50665679
    2        2.00000          1.48224769
================================================================================

 ----iterations are completed or convergence reached----

 Mean square residual over all n,k,spin=   43.520E-14; max=  97.609E-14
 reduced coordinates (array xred) for    2 atoms
       0.000000000000      0.000000000000      0.000000000000
       0.270073000000      0.000000000000      0.000000000000

 cartesian coordinates (angstrom) at end:
    1      0.00000000000000     0.00000000000000     0.00000000000000
    2      0.74000007657968     0.00000000000000     0.00000000000000
 length scales=  5.177850000000 10.000000000000 10.000000000000 bohr
              =  2.740000209498  5.291772085900  5.291772085900 angstroms
 prteigrs : about to open file io_dir/01_hchain_o_DS2_EIG
 Eigenvalues (hartree) for nkpt=   4  k points:
 kpt#   1, nband= 10, wtk=  0.16667, kpt=  0.0000  0.0000  0.0000 (reduced coord)
  -0.41022   -0.00564    0.01133    0.01133    0.04471    0.05787    0.07995    0.07995
   0.08842    0.12060
 prteigrs : prtvol=0 or 1, do not print more k-points.


================================================================================
== DATASET  3 ==================================================================
-   mpi_nproc: 1, omp_nthreads: 1 (-1 if OMP is not activated)


--- !DatasetInfo
iteration_state: {dtset: 3, }
dimensions: {natom: 2, nkpt: 6, mband: 1, nsppol: 1, nspinor: 1, nspden: 1, mpw: 2952, }
cutoff_energies: {ecut:  10.0, pawecutdg:  -1.0, }
electrons: {nelect:   2.00000000E+00, charge:   0.00000000E+00, occopt:   1.00000000E+00, tsmear:   1.00000000E-02, }
meta: {optdriver: 1, rfelfd: 2, }
...

 mkfilename : getwfk/=0, take file _WFK from output of DATASET   1.

 Exchange-correlation functional for the present dataset will be:
  GGA: Perdew-Burke-Ernzerhof functional - ixc=11
 Citation for XC functional:
  J.P.Perdew, K.Burke, M.Ernzerhof, PRL 77, 3865 (1996)

 Real(R)+Recip(G) space primitive vectors, cartesian coordinates (Bohr,Bohr^-1):
 R(1)=  5.1778500  0.0000000  0.0000000  G(1)=  0.1931304  0.0000000  0.0000000
 R(2)=  0.0000000 19.3130000  0.0000000  G(2)=  0.0000000  0.0517786  0.0000000
 R(3)=  0.0000000  0.0000000 19.3130000  G(3)=  0.0000000  0.0000000  0.0517786
 Unit cell volume ucvol=  1.9312965E+03 bohr^3
 Angles (23,13,12)=  9.00000000E+01  9.00000000E+01  9.00000000E+01 degrees
 setup1 : take into account q-point for computing boxcut.

 getcut: wavevector=  0.0000  0.0000  0.0000  ngfft=  16  60  60
         ecut(hartree)=     10.000   => boxcut(ratio)=   2.17073
--------------------------------------------------------------------------------


 ==>  initialize data related to q vector <== 

 The list of irreducible perturbations for this q vector is:
    1)    idir= 1    ipert=   3
    2)    idir= 2    ipert=   3
    3)    idir= 3    ipert=   3

================================================================================

--------------------------------------------------------------------------------
 Perturbation wavevector (in red.coord.)   0.000000  0.000000  0.000000
 Perturbation : derivative vs k along direction   1
 The set of symmetries contains only one element for this perturbation.
 symkpt : not enough symmetry to change the number of k points.

--------------------------------------------------------------------------------

--------------------------------------------------------------------------------

 Initialisation of the first-order wave-functions :
  ireadwf=   0

--- !BeginCycle
iteration_state: {dtset: 3, }
solver: {iscf: -3, nstep: 200, nline: 4, wfoptalg: 0, }
tolerances: {tolwfr: 1.00E-12, }
...

     iter   2DEtotal(Ha)        deltaE(Ha) residm    vres2
-ETOT  1  -2.9419006573723     -2.942E+00 8.286E-03 0.000E+00
 ETOT  2  -2.9424065643350     -5.059E-04 3.219E-06 0.000E+00
 ETOT  3  -2.9424068033190     -2.390E-07 1.032E-09 0.000E+00
 ETOT  4  -2.9424068033921     -7.309E-11 5.145E-13 0.000E+00

 At SCF step    4   max residual=  5.14E-13 < tolwfr=  1.00E-12 =>converged.
================================================================================

 ----iterations are completed or convergence reached----

 Mean square residual over all n,k,spin=   25.855E-14; max=  51.448E-14
 dfpt_looppert : ek2=    5.8900746379E+00
          f-sum rule ratio=    9.9856703552E-01
 prteigrs : about to open file io_dir/01_hchain_tmp_1WF1_EIG
 Expectation of eigenvalue derivatives (hartree) for nkpt=   6  k points:
  (in case of degenerate eigenvalues, averaged derivative)
 kpt#   1, nband=  1, wtk=  0.16667, kpt=  0.0000  0.0000  0.0000 (reduced coord)
  -0.00000
 prteigrs : prtvol=0 or 1, do not print more k-points.


 Eight components of 2nd-order total energy (hartree) are
 1,2,3: 0th-order hamiltonian combined with 1st-order wavefunctions
     kin0=   4.45627584E+00 eigvalue=   2.49905820E+00  local=  -3.71594276E+00
 4,5,6: 1st-order hamiltonian combined with 1st and 0th-order wfs
     kin1=  -5.88163437E+00  Hartree=   0.00000000E+00     xc=   0.00000000E+00
 7,8,9: eventually, occupation + non-local contributions
    edocc=   0.00000000E+00     enl0=  -2.96984972E-01   enl1=  -3.17873786E-03
 1-9 gives the relaxation energy (to be shifted if some occ is /=2.0)
   erelax=  -2.94240680E+00
  No Ewald or frozen-wf contrib.: the relaxation energy is the total one
 2DEtotal=   -0.2942406803E+01 Ha. Also 2DEtotal=   -0.800669609994E+02 eV
    (  non-var. 2DEtotal :   -2.9424065540E+00 Ha)

--------------------------------------------------------------------------------
 Perturbation wavevector (in red.coord.)   0.000000  0.000000  0.000000
 Perturbation : derivative vs k along direction   2
 The set of symmetries contains only one element for this perturbation.
 symkpt : not enough symmetry to change the number of k points.

--------------------------------------------------------------------------------

--------------------------------------------------------------------------------

 Initialisation of the first-order wave-functions :
  ireadwf=   0

--- !BeginCycle
iteration_state: {dtset: 3, }
solver: {iscf: -3, nstep: 200, nline: 4, wfoptalg: 0, }
tolerances: {tolwfr: 1.00E-12, }
...

     iter   2DEtotal(Ha)        deltaE(Ha) residm    vres2
-ETOT  1 -0.21095872896946     -2.110E-01 1.252E-03 0.000E+00
 ETOT  2 -0.21105492848678     -9.620E-05 4.341E-07 0.000E+00
 ETOT  3 -0.21105494693665     -1.845E-08 2.233E-10 0.000E+00
 ETOT  4 -0.21105494694804     -1.139E-11 6.137E-13 0.000E+00

 At SCF step    4   max residual=  6.14E-13 < tolwfr=  1.00E-12 =>converged.
================================================================================

 ----iterations are completed or convergence reached----

 Mean square residual over all n,k,spin=   33.485E-14; max=  61.372E-14
 dfpt_looppert : ek2=    4.2337016221E-01
          f-sum rule ratio=    9.9578988598E-01
 prteigrs : about to open file io_dir/01_hchain_tmp_1WF1_EIG
 Expectation of eigenvalue derivatives (hartree) for nkpt=   6  k points:
  (in case of degenerate eigenvalues, averaged derivative)
 kpt#   1, nband=  1, wtk=  0.16667, kpt=  0.0000  0.0000  0.0000 (reduced coord)
   0.00000
 prteigrs : prtvol=0 or 1, do not print more k-points.


 Eight components of 2nd-order total energy (hartree) are
 1,2,3: 0th-order hamiltonian combined with 1st-order wavefunctions
     kin0=   1.96554483E-01 eigvalue=   1.27233021E-01  local=  -1.12156913E-01
 4,5,6: 1st-order hamiltonian combined with 1st and 0th-order wfs
     kin1=  -4.21587726E-01  Hartree=   0.00000000E+00     xc=   0.00000000E+00
 7,8,9: eventually, occupation + non-local contributions
    edocc=   0.00000000E+00     enl0=  -5.75782132E-04   enl1=  -5.22029995E-04
 1-9 gives the relaxation energy (to be shifted if some occ is /=2.0)
   erelax=  -2.11054947E-01
  No Ewald or frozen-wf contrib.: the relaxation energy is the total one
 2DEtotal=   -0.2110549469E+00 Ha. Also 2DEtotal=   -0.574309717696E+01 eV
    (  non-var. 2DEtotal :   -2.1105487777E-01 Ha)

--------------------------------------------------------------------------------
 Perturbation wavevector (in red.coord.)   0.000000  0.000000  0.000000
 Perturbation : derivative vs k along direction   3
 The set of symmetries contains only one element for this perturbation.
 symkpt : not enough symmetry to change the number of k points.

--------------------------------------------------------------------------------

--------------------------------------------------------------------------------

 Initialisation of the first-order wave-functions :
  ireadwf=   0

--- !BeginCycle
iteration_state: {dtset: 3, }
solver: {iscf: -3, nstep: 200, nline: 4, wfoptalg: 0, }
tolerances: {tolwfr: 1.00E-12, }
...

     iter   2DEtotal(Ha)        deltaE(Ha) residm    vres2
-ETOT  1 -0.21095872890429     -2.110E-01 1.252E-03 0.000E+00
 ETOT  2 -0.21105492841979     -9.620E-05 4.341E-07 0.000E+00
 ETOT  3 -0.21105494686966     -1.845E-08 2.233E-10 0.000E+00
 ETOT  4 -0.21105494688105     -1.139E-11 6.137E-13 0.000E+00

 At SCF step    4   max residual=  6.14E-13 < tolwfr=  1.00E-12 =>converged.
================================================================================

 ----iterations are completed or convergence reached----

 Mean square residual over all n,k,spin=   33.485E-14; max=  61.372E-14
 dfpt_looppert : ek2=    4.2337016221E-01
          f-sum rule ratio=    9.9578988566E-01
 prteigrs : about to open file io_dir/01_hchain_tmp_1WF1_EIG
 Expectation of eigenvalue derivatives (hartree) for nkpt=   6  k points:
  (in case of degenerate eigenvalues, averaged derivative)
 kpt#   1, nband=  1, wtk=  0.16667, kpt=  0.0000  0.0000  0.0000 (reduced coord)
   0.00000
 prteigrs : prtvol=0 or 1, do not print more k-points.


 Eight components of 2nd-order total energy (hartree) are
 1,2,3: 0th-order hamiltonian combined with 1st-order wavefunctions
     kin0=   1.96554483E-01 eigvalue=   1.27233021E-01  local=  -1.12156913E-01
 4,5,6: 1st-order hamiltonian combined with 1st and 0th-order wfs
     kin1=  -4.21587725E-01  Hartree=   0.00000000E+00     xc=   0.00000000E+00
 7,8,9: eventually, occupation + non-local contributions
    edocc=   0.00000000E+00     enl0=  -5.75782132E-04   enl1=  -5.22029995E-04
 1-9 gives the relaxation energy (to be shifted if some occ is /=2.0)
   erelax=  -2.11054947E-01
  No Ewald or frozen-wf contrib.: the relaxation energy is the total one
 2DEtotal=   -0.2110549469E+00 Ha. Also 2DEtotal=   -0.574309717513E+01 eV
    (  non-var. 2DEtotal :   -2.1105487771E-01 Ha)
================================================================================

 ---- first-order wavefunction calculations are completed ----


 Total localisation tensor (bohr^2) in cartesian coordinates
  WARNING : still subject to testing - especially symmetries.
      direction              matrix element
   alpha     beta       real part   imaginary part
     1        1       1.1715503434    0.0000000000
     1        2       0.0000000000    0.0000000000
     1        3       0.0000000000    0.0000000000
     2        1       0.0000000000    0.0000000000
     2        2       0.7866596621    0.0000000000
     2        3       0.0000000000    0.0000000000
     3        1       0.0000000000    0.0000000000
     3        2       0.0000000000    0.0000000000
     3        3       0.7866596619    0.0000000000

 respfn : d/dk was computed, but no 2DTE, so no DDB output.

================================================================================
== DATASET  4 ==================================================================
-   mpi_nproc: 1, omp_nthreads: 1 (-1 if OMP is not activated)


--- !DatasetInfo
iteration_state: {dtset: 4, }
dimensions: {natom: 2, nkpt: 6, mband: 1, nsppol: 1, nspinor: 1, nspden: 1, mpw: 2952, }
cutoff_energies: {ecut:  10.0, pawecutdg:  -1.0, }
electrons: {nelect:   2.00000000E+00, charge:   0.00000000E+00, occopt:   1.00000000E+00, tsmear:   1.00000000E-02, }
meta: {optdriver: 1, rfelfd: 3, rfphon: 1, }
...

 mkfilename : getwfk/=0, take file _WFK from output of DATASET   1.

 mkfilename : getddk/=0, take file _1WF from output of DATASET   3.

 Exchange-correlation functional for the present dataset will be:
  GGA: Perdew-Burke-Ernzerhof functional - ixc=11
 Citation for XC functional:
  J.P.Perdew, K.Burke, M.Ernzerhof, PRL 77, 3865 (1996)

 Real(R)+Recip(G) space primitive vectors, cartesian coordinates (Bohr,Bohr^-1):
 R(1)=  5.1778500  0.0000000  0.0000000  G(1)=  0.1931304  0.0000000  0.0000000
 R(2)=  0.0000000 19.3130000  0.0000000  G(2)=  0.0000000  0.0517786  0.0000000
 R(3)=  0.0000000  0.0000000 19.3130000  G(3)=  0.0000000  0.0000000  0.0517786
 Unit cell volume ucvol=  1.9312965E+03 bohr^3
 Angles (23,13,12)=  9.00000000E+01  9.00000000E+01  9.00000000E+01 degrees
 setup1 : take into account q-point for computing boxcut.

 getcut: wavevector=  0.0000  0.0000  0.0000  ngfft=  16  60  60
         ecut(hartree)=     10.000   => boxcut(ratio)=   2.17073
--------------------------------------------------------------------------------


 ==>  initialize data related to q vector <== 

 The list of irreducible perturbations for this q vector is:
    1)    idir= 1    ipert=   1
    2)    idir= 2    ipert=   1
    3)    idir= 1    ipert=   2
    4)    idir= 2    ipert=   2
    5)    idir= 1    ipert=   4
    6)    idir= 2    ipert=   4

================================================================================

 The perturbation idir=   3  ipert=   1 is
 symmetric of a previously calculated perturbation.
 So, its SCF calculation is not needed.


 The perturbation idir=   3  ipert=   2 is
 symmetric of a previously calculated perturbation.
 So, its SCF calculation is not needed.


 The perturbation idir=   3  ipert=   4 is
 symmetric of a previously calculated perturbation.
 So, its SCF calculation is not needed.


--------------------------------------------------------------------------------
 Perturbation wavevector (in red.coord.)   0.000000  0.000000  0.000000
 Perturbation : displacement of atom   1   along direction   1
 Found     8 symmetries that leave the perturbation invariant.
 symkpt : not enough symmetry to change the number of k points.

--------------------------------------------------------------------------------

--------------------------------------------------------------------------------

 Initialisation of the first-order wave-functions :
  ireadwf=   0

--- !BeginCycle
iteration_state: {dtset: 4, }
solver: {iscf: 7, nstep: 200, nline: 4, wfoptalg: 0, }
tolerances: {tolwfr: 1.00E-12, }
...

     iter   2DEtotal(Ha)        deltaE(Ha) residm    vres2
-ETOT  1   9.7606685241603     -2.463E+01 1.125E-01 7.065E+08
 ETOT  2   9.3981190567731     -3.625E-01 5.372E-04 2.225E+06
 ETOT  3   9.3962315965281     -1.887E-03 6.420E-06 3.470E+03
 ETOT  4   9.3958667718380     -3.648E-04 3.586E-07 5.955E+01
 ETOT  5   9.3957971297847     -6.964E-05 4.842E-08 1.839E+01
 ETOT  6   9.3957732073448     -2.392E-05 2.026E-08 4.780E+00
 ETOT  7   9.3957676381741     -5.569E-06 1.131E-08 1.137E-01
 ETOT  8   9.3957676122517     -2.592E-08 1.316E-10 9.255E-03
 ETOT  9   9.3957676105578     -1.694E-09 8.917E-12 5.231E-04
 ETOT 10   9.3957676105228     -3.496E-11 5.440E-13 7.446E-05

 At SCF step   10   max residual=  5.44E-13 < tolwfr=  1.00E-12 =>converged.
-open ddk wf file :io_dir/01_hchain_o_DS3_1WF7.nc
-open ddk wf file :io_dir/01_hchain_o_DS3_1WF8.nc
-open ddk wf file :io_dir/01_hchain_o_DS3_1WF9.nc
================================================================================

 ----iterations are completed or convergence reached----

 Mean square residual over all n,k,spin=   42.004E-14; max=  54.395E-14

 Thirteen components of 2nd-order total energy (hartree) are
 1,2,3: 0th-order hamiltonian combined with 1st-order wavefunctions
     kin0=   2.96934904E+01 eigvalue=   6.39702069E+00  local=  -1.34266592E+01
 4,5,6: 1st-order hamiltonian combined with 1st and 0th-order wfs
 loc psp =  -3.88162597E+01  Hartree=   7.68985849E+00     xc=  -4.52348876E+00
 note that "loc psp" includes a xc core correction that could be resolved
 7,8,9: eventually, occupation + non-local contributions
    edocc=   0.00000000E+00     enl0=  -8.30699302E-01   enl1=  -1.11827741E+01
 1-9 gives the relaxation energy (to be shifted if some occ is /=2.0)
   erelax=  -2.49995115E+01
 10,11,12 Non-relaxation  contributions : frozen-wavefunctions and Ewald
 fr.local=   1.08845762E+01 fr.nonlo=   2.55167589E+00  Ewald=   2.09590270E+01
 13,14 Frozen wf xc core corrections (1) and (2)
 frxc 1  =   0.00000000E+00  frxc 2 =   0.00000000E+00
 Resulting in :
 2DEtotal=    0.9395767611E+01 Ha. Also 2DEtotal=    0.255671839109E+03 eV
    (2DErelax=   -2.4999511481E+01 Ha. 2DEnonrelax=    3.4395279091E+01 Ha)
    (  non-var. 2DEtotal :    9.3957621744E+00 Ha)


--------------------------------------------------------------------------------
 Perturbation wavevector (in red.coord.)   0.000000  0.000000  0.000000
 Perturbation : displacement of atom   1   along direction   2
 Found     2 symmetries that leave the perturbation invariant.
 symkpt : not enough symmetry to change the number of k points.

--------------------------------------------------------------------------------

--------------------------------------------------------------------------------

 Initialisation of the first-order wave-functions :
  ireadwf=   0

--- !BeginCycle
iteration_state: {dtset: 4, }
solver: {iscf: 7, nstep: 200, nline: 4, wfoptalg: 0, }
tolerances: {tolwfr: 1.00E-12, }
...

     iter   2DEtotal(Ha)        deltaE(Ha) residm    vres2
-ETOT  1  -3.4234397396299     -3.165E+02 8.889E-01 6.070E+09
 ETOT  2  -4.2045563598608     -7.811E-01 2.885E-03 3.150E+06
 ETOT  3  -4.2368154813426     -3.226E-02 5.394E-05 8.559E+03
 ETOT  4  -4.2406703339127     -3.855E-03 2.406E-06 1.278E+03
 ETOT  5  -4.2419242123690     -1.254E-03 5.098E-07 3.221E+02
 ETOT  6  -4.2426979533819     -7.737E-04 3.341E-07 4.947E+01
 ETOT  7  -4.2431220242678     -4.241E-04 2.930E-07 3.851E+00
 ETOT  8  -4.2432125585145     -9.053E-05 1.206E-07 6.497E-02
 ETOT  9  -4.2432139061475     -1.348E-06 3.234E-09 4.485E-03
 ETOT 10  -4.2432139114681     -5.320E-09 5.770E-11 3.479E-04
 ETOT 11  -4.2432139132689     -1.801E-09 7.518E-13 6.813E-05

 At SCF step   11   max residual=  7.52E-13 < tolwfr=  1.00E-12 =>converged.
-open ddk wf file :io_dir/01_hchain_o_DS3_1WF7.nc
-open ddk wf file :io_dir/01_hchain_o_DS3_1WF8.nc
-open ddk wf file :io_dir/01_hchain_o_DS3_1WF9.nc
================================================================================

 ----iterations are completed or convergence reached----

 Mean square residual over all n,k,spin=   46.262E-14; max=  75.180E-14

 Thirteen components of 2nd-order total energy (hartree) are
 1,2,3: 0th-order hamiltonian combined with 1st-order wavefunctions
     kin0=   3.38302206E+02 eigvalue=   6.91636676E+01  local=  -1.21948360E+02
 4,5,6: 1st-order hamiltonian combined with 1st and 0th-order wfs
 loc psp =  -4.90686007E+02  Hartree=   8.46265338E+01     xc=  -5.09379184E+01
 note that "loc psp" includes a xc core correction that could be resolved
 7,8,9: eventually, occupation + non-local contributions
    edocc=   0.00000000E+00     enl0=  -1.90811991E+00   enl1=  -1.43910604E+02
 1-9 gives the relaxation energy (to be shifted if some occ is /=2.0)
   erelax=  -3.17298602E+02
 10,11,12 Non-relaxation  contributions : frozen-wavefunctions and Ewald
 fr.local=   3.68841311E+02 fr.nonlo=   8.87952818E+01  Ewald=  -1.44581205E+02
 13,14 Frozen wf xc core corrections (1) and (2)
 frxc 1  =   0.00000000E+00  frxc 2 =   0.00000000E+00
 Resulting in :
 2DEtotal=   -0.4243213913E+01 Ha. Also 2DEtotal=   -0.115463722594E+03 eV
    (2DErelax=   -3.1729860204E+02 Ha. 2DEnonrelax=    3.1305538812E+02 Ha)
    (  non-var. 2DEtotal :   -4.2429173584E+00 Ha)


--------------------------------------------------------------------------------
 Perturbation wavevector (in red.coord.)   0.000000  0.000000  0.000000
 Perturbation : displacement of atom   2   along direction   1
 Found     8 symmetries that leave the perturbation invariant.
 symkpt : not enough symmetry to change the number of k points.

--------------------------------------------------------------------------------

--------------------------------------------------------------------------------

 Initialisation of the first-order wave-functions :
  ireadwf=   0

--- !BeginCycle
iteration_state: {dtset: 4, }
solver: {iscf: 7, nstep: 200, nline: 4, wfoptalg: 0, }
tolerances: {tolwfr: 1.00E-12, }
...

     iter   2DEtotal(Ha)        deltaE(Ha) residm    vres2
-ETOT  1   9.7431497394906     -2.465E+01 1.115E-01 2.009E+08
 ETOT  2   9.3978941191303     -3.453E-01 4.872E-04 3.767E+05
 ETOT  3   9.3963152339847     -1.579E-03 3.873E-06 1.241E+03
 ETOT  4   9.3960146131450     -3.006E-04 2.811E-07 2.407E+01
 ETOT  5   9.3959645917847     -5.002E-05 3.154E-08 7.717E+00
 ETOT  6   9.3959468962912     -1.770E-05 1.611E-08 1.736E+00
 ETOT  7   9.3959436420442     -3.254E-06 6.203E-09 7.058E-02
 ETOT  8   9.3959436116612     -3.038E-08 1.096E-10 7.568E-03
 ETOT  9   9.3959436100962     -1.565E-09 8.992E-12 2.419E-04
 ETOT 10   9.3959436100385     -5.771E-11 7.865E-13 2.507E-05

 At SCF step   10   max residual=  7.86E-13 < tolwfr=  1.00E-12 =>converged.
-open ddk wf file :io_dir/01_hchain_o_DS3_1WF7.nc
-open ddk wf file :io_dir/01_hchain_o_DS3_1WF8.nc
-open ddk wf file :io_dir/01_hchain_o_DS3_1WF9.nc
================================================================================

 ----iterations are completed or convergence reached----

 Mean square residual over all n,k,spin=   45.288E-14; max=  78.645E-14

 Thirteen components of 2nd-order total energy (hartree) are
 1,2,3: 0th-order hamiltonian combined with 1st-order wavefunctions
     kin0=   2.96922973E+01 eigvalue=   6.39599729E+00  local=  -1.34256398E+01
 4,5,6: 1st-order hamiltonian combined with 1st and 0th-order wfs
 loc psp =  -3.88154803E+01  Hartree=   7.68922812E+00     xc=  -4.52221091E+00
 note that "loc psp" includes a xc core correction that could be resolved
 7,8,9: eventually, occupation + non-local contributions
    edocc=   0.00000000E+00     enl0=  -8.30584031E-01   enl1=  -1.11827063E+01
 1-9 gives the relaxation energy (to be shifted if some occ is /=2.0)
   erelax=  -2.49990986E+01
 10,11,12 Non-relaxation  contributions : frozen-wavefunctions and Ewald
 fr.local=   1.08844599E+01 fr.nonlo=   2.55155531E+00  Ewald=   2.09590270E+01
 13,14 Frozen wf xc core corrections (1) and (2)
 frxc 1  =   0.00000000E+00  frxc 2 =   0.00000000E+00
 Resulting in :
 2DEtotal=    0.9395943610E+01 Ha. Also 2DEtotal=    0.255676628300E+03 eV
    (2DErelax=   -2.4999098648E+01 Ha. 2DEnonrelax=    3.4395042258E+01 Ha)
    (  non-var. 2DEtotal :    9.3959489658E+00 Ha)


--------------------------------------------------------------------------------
 Perturbation wavevector (in red.coord.)   0.000000  0.000000  0.000000
 Perturbation : displacement of atom   2   along direction   2
 Found     2 symmetries that leave the perturbation invariant.
 symkpt : not enough symmetry to change the number of k points.

--------------------------------------------------------------------------------

--------------------------------------------------------------------------------

 Initialisation of the first-order wave-functions :
  ireadwf=   0

--- !BeginCycle
iteration_state: {dtset: 4, }
solver: {iscf: 7, nstep: 200, nline: 4, wfoptalg: 0, }
tolerances: {tolwfr: 1.00E-12, }
...

     iter   2DEtotal(Ha)        deltaE(Ha) residm    vres2
-ETOT  1  -3.4917127778213     -3.165E+02 8.910E-01 6.380E+09
 ETOT  2  -4.1976203526786     -7.059E-01 2.379E-03 1.269E+06
 ETOT  3  -4.2304552992381     -3.283E-02 3.864E-05 6.373E+03
 ETOT  4  -4.2366724967965     -6.217E-03 2.105E-06 9.876E+02
 ETOT  5  -4.2401658483046     -3.493E-03 1.035E-06 2.912E+02
 ETOT  6  -4.2426581619823     -2.492E-03 1.346E-06 4.839E+01
 ETOT  7  -4.2434603573883     -8.022E-04 9.600E-07 9.789E-01
 ETOT  8  -4.2434786502811     -1.829E-05 3.872E-08 8.199E-02
 ETOT  9  -4.2434786630031     -1.272E-08 3.027E-10 1.265E-02
 ETOT 10  -4.2434786692988     -6.296E-09 9.449E-12 9.626E-04
 ETOT 11  -4.2434786844670     -1.517E-08 1.871E-11 7.806E-05
 ETOT 12  -4.2434786845860     -1.191E-10 6.068E-13 3.986E-06

 At SCF step   12   max residual=  6.07E-13 < tolwfr=  1.00E-12 =>converged.
-open ddk wf file :io_dir/01_hchain_o_DS3_1WF7.nc
-open ddk wf file :io_dir/01_hchain_o_DS3_1WF8.nc
-open ddk wf file :io_dir/01_hchain_o_DS3_1WF9.nc
================================================================================

 ----iterations are completed or convergence reached----

 Mean square residual over all n,k,spin=   28.442E-14; max=  60.679E-14

 Thirteen components of 2nd-order total energy (hartree) are
 1,2,3: 0th-order hamiltonian combined with 1st-order wavefunctions
     kin0=   3.38303825E+02 eigvalue=   6.91647935E+01  local=  -1.21949434E+02
 4,5,6: 1st-order hamiltonian combined with 1st and 0th-order wfs
 loc psp =  -4.90688574E+02  Hartree=   8.46276483E+01     xc=  -5.09391845E+01
 note that "loc psp" includes a xc core correction that could be resolved
 7,8,9: eventually, occupation + non-local contributions
    edocc=   0.00000000E+00     enl0=  -1.90812010E+00   enl1=  -1.43910566E+02
 1-9 gives the relaxation energy (to be shifted if some occ is /=2.0)
   erelax=  -3.17299612E+02
 10,11,12 Non-relaxation  contributions : frozen-wavefunctions and Ewald
 fr.local=   3.68842150E+02 fr.nonlo=   8.87951878E+01  Ewald=  -1.44581205E+02
 13,14 Frozen wf xc core corrections (1) and (2)
 frxc 1  =   0.00000000E+00  frxc 2 =   0.00000000E+00
 Resulting in :
 2DEtotal=   -0.4243478685E+01 Ha. Also 2DEtotal=   -0.115470927388E+03 eV
    (2DErelax=   -3.1729961157E+02 Ha. 2DEnonrelax=    3.1305613288E+02 Ha)
    (  non-var. 2DEtotal :   -4.2434369352E+00 Ha)


--------------------------------------------------------------------------------
 Perturbation wavevector (in red.coord.)   0.000000  0.000000  0.000000
 Perturbation : homogeneous electric field along direction   1
 The set of symmetries contains only one element for this perturbation.
 symkpt : not enough symmetry to change the number of k points.

--------------------------------------------------------------------------------

--------------------------------------------------------------------------------

 Initialisation of the first-order wave-functions :
  ireadwf=   0
- dfpt_looppert: read the DDK wavefunctions from file: io_dir/01_hchain_o_DS3_1WF7.nc

--- !BeginCycle
iteration_state: {dtset: 4, }
solver: {iscf: 7, nstep: 200, nline: 4, wfoptalg: 0, }
tolerances: {tolwfr: 1.00E-12, }
...

     iter   2DEtotal(Ha)        deltaE(Ha) residm    vres2
-ETOT  1  -14.119296493548     -1.412E+01 6.984E-02 2.647E+03
 ETOT  2  -15.090382371914     -9.711E-01 7.812E-03 7.582E+01
 ETOT  3  -15.123823907621     -3.344E-02 4.353E-05 3.761E+00
 ETOT  4  -15.124155820305     -3.319E-04 4.728E-07 1.005E-01
 ETOT  5  -15.124159554787     -3.734E-06 1.236E-08 3.937E-03
 ETOT  6  -15.124159759977     -2.052E-07 5.681E-10 2.403E-04
 ETOT  7  -15.124159764851     -4.874E-09 5.931E-12 2.242E-05
 ETOT  8  -15.124159765467     -6.153E-10 1.794E-12 4.016E-06
 ETOT  9  -15.124159765468     -1.691E-12 8.567E-13 1.446E-06

 At SCF step    9   max residual=  8.57E-13 < tolwfr=  1.00E-12 =>converged.
-open ddk wf file :io_dir/01_hchain_o_DS3_1WF7.nc
-open ddk wf file :io_dir/01_hchain_o_DS3_1WF8.nc
-open ddk wf file :io_dir/01_hchain_o_DS3_1WF9.nc
================================================================================

 ----iterations are completed or convergence reached----

 Mean square residual over all n,k,spin=   58.282E-14; max=  85.666E-14

 Seven components of 2nd-order total energy (hartree) are
 1,2,3: 0th-order hamiltonian combined with 1st-order wavefunctions
     kin0=   1.62426152E+01 eigvalue=   1.29326195E+01  local=  -1.48184760E+01
 4,5,6: 1st-order hamiltonian combined with 1st and 0th-order wfs
    dotwf=  -3.02483229E+01  Hartree=   4.45002208E+00     xc=  -2.84594231E+00
 7,8,9: eventually, occupation + non-local contributions
    edocc=   0.00000000E+00     enl0=  -8.36675464E-01   enl1=   0.00000000E+00
 1-9 gives the relaxation energy (to be shifted if some occ is /=2.0)
   erelax=  -1.51241598E+01
  No Ewald or frozen-wf contrib.: the relaxation energy is the total one
 2DEtotal=   -0.1512415977E+02 Ha. Also 2DEtotal=   -0.411549316938E+03 eV
    (  non-var. 2DEtotal :   -1.5124161440E+01 Ha)

--------------------------------------------------------------------------------
 Perturbation wavevector (in red.coord.)   0.000000  0.000000  0.000000
 Perturbation : homogeneous electric field along direction   2
 The set of symmetries contains only one element for this perturbation.
 symkpt : not enough symmetry to change the number of k points.

--------------------------------------------------------------------------------

--------------------------------------------------------------------------------

 Initialisation of the first-order wave-functions :
  ireadwf=   0
- dfpt_looppert: read the DDK wavefunctions from file: io_dir/01_hchain_o_DS3_1WF8.nc

--- !BeginCycle
iteration_state: {dtset: 4, }
solver: {iscf: 7, nstep: 200, nline: 4, wfoptalg: 0, }
tolerances: {tolwfr: 1.00E-12, }
...

     iter   2DEtotal(Ha)        deltaE(Ha) residm    vres2
-ETOT  1 -0.46859671608544     -4.686E-01 1.949E-03 3.348E+03
 ETOT  2 -0.49551347014554     -2.692E-02 7.157E-05 1.065E+01
 ETOT  3 -0.49645869768306     -9.452E-04 1.120E-06 1.288E+00
 ETOT  4 -0.49659374998532     -1.351E-04 1.493E-07 2.104E-01
 ETOT  5 -0.49660642486736     -1.267E-05 2.132E-08 2.890E-02
 ETOT  6 -0.49660647288272     -4.802E-08 2.947E-10 6.142E-03
 ETOT  7 -0.49660647811156     -5.229E-09 1.373E-11 3.884E-04
 ETOT  8 -0.49660647801211      9.945E-11 3.927E-13 5.387E-05

 At SCF step    8   max residual=  3.93E-13 < tolwfr=  1.00E-12 =>converged.
-open ddk wf file :io_dir/01_hchain_o_DS3_1WF7.nc
-open ddk wf file :io_dir/01_hchain_o_DS3_1WF8.nc
-open ddk wf file :io_dir/01_hchain_o_DS3_1WF9.nc
================================================================================

 ----iterations are completed or convergence reached----

 Mean square residual over all n,k,spin=   22.970E-14; max=  39.271E-14

 Seven components of 2nd-order total energy (hartree) are
 1,2,3: 0th-order hamiltonian combined with 1st-order wavefunctions
     kin0=   2.60551463E-01 eigvalue=   3.22023049E-01  local=  -1.64892647E-01
 4,5,6: 1st-order hamiltonian combined with 1st and 0th-order wfs
    dotwf=  -9.93243052E-01  Hartree=   1.65675377E-01     xc=  -8.64267592E-02
 7,8,9: eventually, occupation + non-local contributions
    edocc=   0.00000000E+00     enl0=  -2.93908608E-04   enl1=   0.00000000E+00
 1-9 gives the relaxation energy (to be shifted if some occ is /=2.0)
   erelax=  -4.96606478E-01
  No Ewald or frozen-wf contrib.: the relaxation energy is the total one
 2DEtotal=   -0.4966064780E+00 Ha. Also 2DEtotal=   -0.135133495006E+02 eV
    (  non-var. 2DEtotal :   -4.9662152601E-01 Ha)
================================================================================

 ---- first-order wavefunction calculations are completed ----


 ==> Compute Derivative Database <==
  
  2nd-order matrix (non-cartesian coordinates, masses not included,
   asr not included )
     j1       j2             matrix element
  dir pert dir pert     real part     imaginary part
  
   1    1   1    1         9.3957621744         0.0000000000
   1    1   2    1         0.0000000000         0.0000000000
   1    1   3    1         0.0000000000         0.0000000000
   1    1   1    2        -9.3969582590         0.0000000000
   1    1   2    2         0.0000000000         0.0000000000
   1    1   3    2         0.0000000000         0.0000000000
   1    1   1    4        -6.2748432451         0.0000000000
   1    1   2    4         0.0000000000         0.0000000000
   1    1   3    4         0.0000000000         0.0000000000
  
   2    1   1    1         0.0000000000         0.0000000000
   2    1   2    1        -4.2429173584         0.0000000000
   2    1   3    1         0.0000000000         0.0000000000
   2    1   1    2         0.0000000000         0.0000000000
   2    1   2    2         4.2436118598         0.0000000000
   2    1   3    2        -0.0000000000         0.0000000000
   2    1   1    4         0.0000000000         0.0000000000
   2    1   2    4        -6.2569858710         0.0000000000
   2    1   3    4         0.0000000000         0.0000000000
  
   3    1   1    1         0.0000000000         0.0000000000
   3    1   2    1         0.0000000000         0.0000000000
   3    1   3    1        -4.2429173584         0.0000000000
   3    1   1    2         0.0000000000         0.0000000000
   3    1   2    2        -0.0000000000         0.0000000000
   3    1   3    2         4.2436118598         0.0000000000
   3    1   1    4         0.0000000000         0.0000000000
   3    1   2    4         0.0000000000         0.0000000000
   3    1   3    4        -6.2569858710         0.0000000000
  
   1    2   1    1        -9.3969502478         0.0000000000
   1    2   2    1         0.0000000000         0.0000000000
   1    2   3    1         0.0000000000        -0.0000000000
   1    2   1    2         9.3959489658         0.0000000000
   1    2   2    2         0.0000000000         0.0000000000
   1    2   3    2         0.0000000000         0.0000000000
   1    2   1    4        -6.2753310887         0.0000000000
   1    2   2    4         0.0000000000         0.0000000000
   1    2   3    4         0.0000000000         0.0000000000
  
   2    2   1    1         0.0000000000         0.0000000000
   2    2   2    1         4.2438648123         0.0000000000
   2    2   3    1        -0.0000000000         0.0000000000
   2    2   1    2         0.0000000000         0.0000000000
   2    2   2    2        -4.2434369352         0.0000000000
   2    2   3    2         0.0000000000         0.0000000000
   2    2   1    4         0.0000000000         0.0000000000
   2    2   2    4        -6.2570538589         0.0000000000
   2    2   3    4         0.0000000000         0.0000000000
  
   3    2   1    1         0.0000000000        -0.0000000000
   3    2   2    1        -0.0000000000         0.0000000000
   3    2   3    1         4.2438648123         0.0000000000
   3    2   1    2         0.0000000000         0.0000000000
   3    2   2    2         0.0000000000         0.0000000000
   3    2   3    2        -4.2434369352         0.0000000000
   3    2   1    4         0.0000000000         0.0000000000
   3    2   2    4         0.0000000000         0.0000000000
   3    2   3    4        -6.2570538589         0.0000000000
  
   1    4   1    1        -6.2748490874         0.0000000000
   1    4   2    1         0.0000000000         0.0000000000
   1    4   3    1         0.0000000000         0.0000000000
   1    4   1    2        -6.2753316954         0.0000000000
   1    4   2    2         0.0000000000         0.0000000000
   1    4   3    2         0.0000000000         0.0000000000
   1    4   1    4       -15.1241614404         0.0000000000
   1    4   2    4         0.0000000000         0.0000000000
   1    4   3    4         0.0000000000         0.0000000000
  
   2    4   1    1         0.0000000000         0.0000000000
   2    4   2    1        -6.2567812064         0.0000000000
   2    4   3    1         0.0000000000         0.0000000000
   2    4   1    2         0.0000000000         0.0000000000
   2    4   2    2        -6.2568689640         0.0000000000
   2    4   3    2         0.0000000000         0.0000000000
   2    4   1    4         0.0000000000         0.0000000000
   2    4   2    4        -0.4966215260         0.0000000000
   2    4   3    4         0.0000000000         0.0000000000
  
   3    4   1    1         0.0000000000         0.0000000000
   3    4   2    1         0.0000000000         0.0000000000
   3    4   3    1        -6.2567812064         0.0000000000
   3    4   1    2         0.0000000000         0.0000000000
   3    4   2    2         0.0000000000         0.0000000000
   3    4   3    2        -6.2568689640         0.0000000000
   3    4   1    4         0.0000000000         0.0000000000
   3    4   2    4         0.0000000000         0.0000000000
   3    4   3    4        -0.4966215260         0.0000000000
  
  
  Dynamical matrix, in cartesian coordinates,
   if specified in the inputs, asr has been imposed
     j1       j2             matrix element
  dir pert dir pert     real part    imaginary part
  
   1    1   1    1         0.3504556657         0.0000000000
   1    1   2    1         0.0000000000         0.0000000000
   1    1   3    1         0.0000000000         0.0000000000
   1    1   1    2        -0.3505002788         0.0000000000
   1    1   2    2         0.0000000000         0.0000000000
   1    1   3    2         0.0000000000         0.0000000000
  
   2    1   1    1         0.0000000000         0.0000000000
   2    1   2    1        -0.0113753585         0.0000000000
   2    1   3    1         0.0000000000         0.0000000000
   2    1   1    2         0.0000000000         0.0000000000
   2    1   2    2         0.0113772205         0.0000000000
   2    1   3    2        -0.0000000000         0.0000000000
  
   3    1   1    1         0.0000000000         0.0000000000
   3    1   2    1         0.0000000000         0.0000000000
   3    1   3    1        -0.0113753585         0.0000000000
   3    1   1    2         0.0000000000         0.0000000000
   3    1   2    2        -0.0000000000         0.0000000000
   3    1   3    2         0.0113772205         0.0000000000
  
   1    2   1    1        -0.3504999800         0.0000000000
   1    2   2    1         0.0000000000         0.0000000000
   1    2   3    1         0.0000000000        -0.0000000000
   1    2   1    2         0.3504626329         0.0000000000
   1    2   2    2         0.0000000000         0.0000000000
   1    2   3    2         0.0000000000         0.0000000000
  
   2    2   1    1         0.0000000000         0.0000000000
   2    2   2    1         0.0113778986         0.0000000000
   2    2   3    1        -0.0000000000         0.0000000000
   2    2   1    2         0.0000000000         0.0000000000
   2    2   2    2        -0.0113767515         0.0000000000
   2    2   3    2         0.0000000000         0.0000000000
  
   3    2   1    1         0.0000000000        -0.0000000000
   3    2   2    1        -0.0000000000         0.0000000000
   3    2   3    1         0.0113778986         0.0000000000
   3    2   1    2         0.0000000000         0.0000000000
   3    2   2    2         0.0000000000         0.0000000000
   3    2   3    2        -0.0113767515         0.0000000000
  
  Dielectric tensor, in cartesian coordinates,
     j1       j2             matrix element
  dir pert dir pert     real part    imaginary part
  
   1    4   1    4         1.0668299930        -0.0000000000
   1    4   2    4        -0.0000000000        -0.0000000000
   1    4   3    4        -0.0000000000        -0.0000000000
  
   2    4   1    4        -0.0000000000        -0.0000000000
   2    4   2    4         1.0305299577        -0.0000000000
   2    4   3    4        -0.0000000000        -0.0000000000
  
   3    4   1    4        -0.0000000000        -0.0000000000
   3    4   2    4        -0.0000000000        -0.0000000000
   3    4   3    4         1.0305299577        -0.0000000000
  
  Effective charges, in cartesian coordinates,
  (from electric field response) 
   if specified in the inputs, asr has been imposed
     j1       j2             matrix element
  dir pert dir pert     real part    imaginary part
  
   1    1   1    4         0.0013276804         0.0000000000
   2    1   1    4         0.0000000000         0.0000000000
   3    1   1    4         0.0000000000         0.0000000000
   1    2   1    4         0.0012500377         0.0000000000
   2    2   1    4         0.0000000000         0.0000000000
   3    2   1    4         0.0000000000         0.0000000000
  
   1    1   2    4         0.0000000000         0.0000000000
   2    1   2    4         0.0041697698         0.0000000000
   3    1   2    4         0.0000000000         0.0000000000
   1    2   2    4         0.0000000000         0.0000000000
   2    2   2    4         0.0041589492         0.0000000000
   3    2   2    4         0.0000000000         0.0000000000
  
   1    1   3    4         0.0000000000         0.0000000000
   2    1   3    4         0.0000000000         0.0000000000
   3    1   3    4         0.0041697698         0.0000000000
   1    2   3    4         0.0000000000         0.0000000000
   2    2   3    4         0.0000000000         0.0000000000
   3    2   3    4         0.0041589492         0.0000000000
  
  Effective charges, in cartesian coordinates,
  (from phonon response) 
   if specified in the inputs, asr has been imposed
     j1       j2             matrix element
  dir pert dir pert     real part    imaginary part
  
   1    4   1    1         0.0013267506         0.0000000000
   2    4   1    1         0.0000000000         0.0000000000
   3    4   1    1         0.0000000000         0.0000000000
  
   1    4   2    1         0.0000000000         0.0000000000
   2    4   2    1         0.0042023432         0.0000000000
   3    4   2    1         0.0000000000         0.0000000000
  
   1    4   3    1         0.0000000000         0.0000000000
   2    4   3    1         0.0000000000         0.0000000000
   3    4   3    1         0.0042023432         0.0000000000
  
   1    4   1    2         0.0012499411         0.0000000000
   2    4   1    2         0.0000000000         0.0000000000
   3    4   1    2         0.0000000000         0.0000000000
  
   1    4   2    2         0.0000000000         0.0000000000
   2    4   2    2         0.0041883761         0.0000000000
   3    4   2    2         0.0000000000         0.0000000000
  
   1    4   3    2         0.0000000000         0.0000000000
   2    4   3    2         0.0000000000         0.0000000000
   3    4   3    2         0.0041883761         0.0000000000
  
  
  

  Phonon wavevector (reduced coordinates) :  0.00000  0.00000  0.00000
 Phonon energies in Hartree :
  -3.519069E-03 -3.519069E-03 -1.493446E-04  2.861611E-05  2.861611E-05
   1.953210E-02
 Phonon frequencies in cm-1    :
- -7.723464E+02 -7.723464E+02 -3.277735E+01  6.280511E+00  6.280511E+00
-  4.286801E+03

  Phonon at Gamma, with non-analyticity in the
  direction (cartesian coordinates)  1.00000  0.00000  0.00000
 Phonon energies in Hartree :
  -3.519069E-03 -3.519069E-03 -1.493077E-04  2.861611E-05  2.861611E-05
   1.953210E-02
 Phonon frequencies in cm-1    :
- -7.723464E+02 -7.723464E+02 -3.276924E+01  6.280511E+00  6.280511E+00
-  4.286801E+03

  Phonon at Gamma, with non-analyticity in the
  direction (cartesian coordinates)  0.00000  1.00000  0.00000
 Phonon energies in Hartree :
  -3.519069E-03 -3.519069E-03 -1.493446E-04  2.861611E-05  3.062792E-05
   1.953210E-02
 Phonon frequencies in cm-1    :
- -7.723464E+02 -7.723464E+02 -3.277735E+01  6.280511E+00  6.722052E+00
-  4.286801E+03

  Phonon at Gamma, with non-analyticity in the
  direction (cartesian coordinates)  0.00000  0.00000  1.00000
 Phonon energies in Hartree :
  -3.519069E-03 -3.519069E-03 -1.493446E-04  2.861611E-05  3.062792E-05
   1.953210E-02
 Phonon frequencies in cm-1    :
- -7.723464E+02 -7.723464E+02 -3.277735E+01  6.280511E+00  6.722052E+00
-  4.286801E+03

================================================================================
== DATASET  5 ==================================================================
-   mpi_nproc: 1, omp_nthreads: 1 (-1 if OMP is not activated)


--- !DatasetInfo
iteration_state: {dtset: 5, }
dimensions: {natom: 2, nkpt: 6, mband: 1, nsppol: 1, nspinor: 1, nspden: 1, mpw: 2952, }
cutoff_energies: {ecut:  10.0, pawecutdg:  -1.0, }
electrons: {nelect:   2.00000000E+00, charge:   0.00000000E+00, occopt:   1.00000000E+00, tsmear:   1.00000000E-02, }
meta: {optdriver: 1, rfphon: 1, }
...

 mkfilename : getwfk/=0, take file _WFK from output of DATASET   1.

 Exchange-correlation functional for the present dataset will be:
  GGA: Perdew-Burke-Ernzerhof functional - ixc=11
 Citation for XC functional:
  J.P.Perdew, K.Burke, M.Ernzerhof, PRL 77, 3865 (1996)

 Real(R)+Recip(G) space primitive vectors, cartesian coordinates (Bohr,Bohr^-1):
 R(1)=  5.1778500  0.0000000  0.0000000  G(1)=  0.1931304  0.0000000  0.0000000
 R(2)=  0.0000000 19.3130000  0.0000000  G(2)=  0.0000000  0.0517786  0.0000000
 R(3)=  0.0000000  0.0000000 19.3130000  G(3)=  0.0000000  0.0000000  0.0517786
 Unit cell volume ucvol=  1.9312965E+03 bohr^3
 Angles (23,13,12)=  9.00000000E+01  9.00000000E+01  9.00000000E+01 degrees
 setup1 : take into account q-point for computing boxcut.

 getcut: wavevector=  0.1667  0.0000  0.0000  ngfft=  16  60  60
         ecut(hartree)=     10.000   => boxcut(ratio)=   2.12550
--------------------------------------------------------------------------------


 ==>  initialize data related to q vector <== 

 The list of irreducible perturbations for this q vector is:
    1)    idir= 1    ipert=   1
    2)    idir= 2    ipert=   1
    3)    idir= 1    ipert=   2
    4)    idir= 2    ipert=   2

================================================================================

 The perturbation idir=   3  ipert=   1 is
 symmetric of a previously calculated perturbation.
 So, its SCF calculation is not needed.


 The perturbation idir=   3  ipert=   2 is
 symmetric of a previously calculated perturbation.
 So, its SCF calculation is not needed.


--------------------------------------------------------------------------------
 Perturbation wavevector (in red.coord.)   0.166667  0.000000  0.000000
 Perturbation : displacement of atom   1   along direction   1
 Found     8 symmetries that leave the perturbation invariant.
 symkpt : not enough symmetry to change the number of k points.

--------------------------------------------------------------------------------

--------------------------------------------------------------------------------

 Initialisation of the first-order wave-functions :
  ireadwf=   0

--- !BeginCycle
iteration_state: {dtset: 5, }
solver: {iscf: 7, nstep: 200, nline: 4, wfoptalg: 0, }
tolerances: {tolwfr: 1.00E-12, }
...

     iter   2DEtotal(Ha)        deltaE(Ha) residm    vres2
-ETOT  1   9.8352733427573     -2.520E+01 1.134E-01 5.488E+08
 ETOT  2   9.4551336270290     -3.801E-01 5.491E-04 6.728E+05
 ETOT  3   9.4525725329689     -2.561E-03 4.963E-06 1.544E+03
 ETOT  4   9.4520916269390     -4.809E-04 5.512E-07 1.676E+02
 ETOT  5   9.4519763288861     -1.153E-04 1.093E-07 6.747E+01
 ETOT  6   9.4519273107524     -4.902E-05 5.295E-08 1.730E+01
 ETOT  7   9.4519075333499     -1.978E-05 2.636E-08 1.126E+00
 ETOT  8   9.4519047744553     -2.759E-06 3.352E-09 1.077E-01
 ETOT  9   9.4519039494791     -8.250E-07 1.179E-09 1.281E-02
 ETOT 10   9.4519037656193     -1.839E-07 2.628E-10 1.798E-03
 ETOT 11   9.4519037286556     -3.696E-08 7.759E-11 1.018E-04
 ETOT 12   9.4519037272951     -1.360E-09 3.950E-12 3.095E-06
 ETOT 13   9.4519037272844     -1.070E-11 9.780E-13 4.948E-07

 At SCF step   13   max residual=  9.78E-13 < tolwfr=  1.00E-12 =>converged.
================================================================================

 ----iterations are completed or convergence reached----

 Mean square residual over all n,k,spin=   59.840E-14; max=  97.801E-14

 Thirteen components of 2nd-order total energy (hartree) are
 1,2,3: 0th-order hamiltonian combined with 1st-order wavefunctions
     kin0=   2.95612009E+01 eigvalue=   6.33296444E+00  local=  -1.33051280E+01
 4,5,6: 1st-order hamiltonian combined with 1st and 0th-order wfs
 loc psp =  -4.00155060E+01  Hartree=   8.30601358E+00     xc=  -4.48411982E+00
 note that "loc psp" includes a xc core correction that could be resolved
 7,8,9: eventually, occupation + non-local contributions
    edocc=   0.00000000E+00     enl0=  -8.23387005E-01   enl1=  -1.11595815E+01
 1-9 gives the relaxation energy (to be shifted if some occ is /=2.0)
   erelax=  -2.55875434E+01
 10,11,12 Non-relaxation  contributions : frozen-wavefunctions and Ewald
 fr.local=   1.08845762E+01 fr.nonlo=   2.55167589E+00  Ewald=   2.16031950E+01
 13,14 Frozen wf xc core corrections (1) and (2)
 frxc 1  =   0.00000000E+00  frxc 2 =   0.00000000E+00
 Resulting in :
[...]
   1    2   1    2         0.3588241485         0.0000000000
   1    2   2    2        -0.0000000000         0.0000000000
   1    2   3    2        -0.0000000000         0.0000000000
  
   2    2   1    1         0.0000000000        -0.0000000000
   2    2   2    1         0.0096872704        -0.0000000000
   2    2   3    1        -0.0000000000         0.0000000000
   2    2   1    2        -0.0000000000         0.0000000000
   2    2   2    2        -0.0103632909         0.0000000000
   2    2   3    2         0.0000000000         0.0000000000
  
   3    2   1    1         0.0000000000        -0.0000000000
   3    2   2    1        -0.0000000000         0.0000000000
   3    2   3    1         0.0096872704        -0.0000000000
   3    2   1    2        -0.0000000000         0.0000000000
   3    2   2    2         0.0000000000         0.0000000000
   3    2   3    2        -0.0103632909         0.0000000000

  Phonon wavevector (reduced coordinates) :  0.50000  0.00000  0.00000
 Phonon energies in Hartree :
  -3.303371E-03 -3.303371E-03 -6.062267E-04 -6.062267E-04  2.119588E-03
   1.964952E-02
 Phonon frequencies in cm-1    :
- -7.250062E+02 -7.250062E+02 -1.330514E+02 -1.330514E+02  4.651958E+02
-  4.312571E+03

== END DATASET(S) ==============================================================
================================================================================
  
 -outvars: echo values of variables after computation  --------
-          iomode           3
            acell      5.1778500000E+00  1.0000000000E+01  1.0000000000E+01 Bohr
              amu      1.00794000E+00
           diemac      4.50000000E+00
             ecut      1.00000000E+01 Hartree
           etotal1    -1.1436128231E+00
           etotal3    -2.1105494688E-01
           etotal4    -4.9660647801E-01
           etotal5    -4.1436345900E+00
           etotal6    -3.9541791450E+00
           etotal7    -3.8654473022E+00
            fcart1    -1.3989926284E-02 -0.0000000000E+00 -0.0000000000E+00
                       1.3989926284E-02 -0.0000000000E+00 -0.0000000000E+00
            fcart4     0.0000000000E+00  0.0000000000E+00  0.0000000000E+00
                       0.0000000000E+00  0.0000000000E+00  0.0000000000E+00
            fcart5     0.0000000000E+00  0.0000000000E+00  0.0000000000E+00
                       0.0000000000E+00  0.0000000000E+00  0.0000000000E+00
            fcart6     0.0000000000E+00  0.0000000000E+00  0.0000000000E+00
                       0.0000000000E+00  0.0000000000E+00  0.0000000000E+00
            fcart7     0.0000000000E+00  0.0000000000E+00  0.0000000000E+00
                       0.0000000000E+00  0.0000000000E+00  0.0000000000E+00
-          fftalg         112
           getddk1          0
           getddk2          0
           getddk3          0
           getddk4          3
           getddk5          0
           getddk6          0
           getddk7          0
           getden1          0
           getden2          1
           getden3          0
           getden4          0
           getden5          0
           getden6          0
           getden7          0
           getwfk1          0
           getwfk2          0
           getwfk3          1
           getwfk4          1
           getwfk5          1
           getwfk6          1
           getwfk7          1
           iprcel          21
             iscf1          7
             iscf2         -2
             iscf3         -3
             iscf4          7
             iscf5          7
             iscf6          7
             iscf7          7
           istwfk1       2    0    0    3
           istwfk2       1    0    0    1
           istwfk3       1    0    0    1    0    0
           istwfk4       1    0    0    1    0    0
           istwfk5       1    0    0    1    0    0
           istwfk6       1    0    0    1    0    0
           istwfk7       1    0    0    1    0    0
              ixc          11
           jdtset        1    2    3    4    5    6    7
              kpt1     0.00000000E+00  0.00000000E+00  0.00000000E+00
                       1.66666667E-01  0.00000000E+00  0.00000000E+00
                       3.33333333E-01  0.00000000E+00  0.00000000E+00
                       5.00000000E-01  0.00000000E+00  0.00000000E+00
              kpt2     0.00000000E+00  0.00000000E+00  0.00000000E+00
                       1.66666667E-01  0.00000000E+00  0.00000000E+00
                       3.33333333E-01  0.00000000E+00  0.00000000E+00
                       5.00000000E-01  0.00000000E+00  0.00000000E+00
              kpt3     0.00000000E+00  0.00000000E+00  0.00000000E+00
                       1.66666667E-01  0.00000000E+00  0.00000000E+00
                       3.33333333E-01  0.00000000E+00  0.00000000E+00
                       5.00000000E-01  0.00000000E+00  0.00000000E+00
                      -3.33333333E-01  0.00000000E+00  0.00000000E+00
                      -1.66666667E-01  0.00000000E+00  0.00000000E+00
              kpt4     0.00000000E+00  0.00000000E+00  0.00000000E+00
                       1.66666667E-01  0.00000000E+00  0.00000000E+00
                       3.33333333E-01  0.00000000E+00  0.00000000E+00
                       5.00000000E-01  0.00000000E+00  0.00000000E+00
                      -3.33333333E-01  0.00000000E+00  0.00000000E+00
                      -1.66666667E-01  0.00000000E+00  0.00000000E+00
              kpt5     0.00000000E+00  0.00000000E+00  0.00000000E+00
                       1.66666667E-01  0.00000000E+00  0.00000000E+00
                       3.33333333E-01  0.00000000E+00  0.00000000E+00
                       5.00000000E-01  0.00000000E+00  0.00000000E+00
                      -3.33333333E-01  0.00000000E+00  0.00000000E+00
                      -1.66666667E-01  0.00000000E+00  0.00000000E+00
              kpt6     0.00000000E+00  0.00000000E+00  0.00000000E+00
                       1.66666667E-01  0.00000000E+00  0.00000000E+00
                       3.33333333E-01  0.00000000E+00  0.00000000E+00
                       5.00000000E-01  0.00000000E+00  0.00000000E+00
                      -3.33333333E-01  0.00000000E+00  0.00000000E+00
                      -1.66666667E-01  0.00000000E+00  0.00000000E+00
              kpt7     0.00000000E+00  0.00000000E+00  0.00000000E+00
                       1.66666667E-01  0.00000000E+00  0.00000000E+00
                       3.33333333E-01  0.00000000E+00  0.00000000E+00
                       5.00000000E-01  0.00000000E+00  0.00000000E+00
                      -3.33333333E-01  0.00000000E+00  0.00000000E+00
                      -1.66666667E-01  0.00000000E+00  0.00000000E+00
           kptopt1          1
           kptopt2          1
           kptopt3          3
           kptopt4          3
           kptopt5          3
           kptopt6          3
           kptopt7          3
         kptrlatt        6    0    0      0    1    0      0    0    1
          kptrlen      3.10671000E+01
P           mkmem1          4
P           mkmem2          4
P           mkmem3          6
P           mkmem4          6
P           mkmem5          6
P           mkmem6          6
P           mkmem7          6
P          mkqmem1          4
P          mkqmem2          4
P          mkqmem3          6
P          mkqmem4          6
P          mkqmem5          6
P          mkqmem6          6
P          mkqmem7          6
P          mk1mem1          4
P          mk1mem2          4
P          mk1mem3          6
P          mk1mem4          6
P          mk1mem5          6
P          mk1mem6          6
P          mk1mem7          6
            natom           2
            nband1          2
            nband2         10
            nband3          1
            nband4          1
            nband5          1
            nband6          1
            nband7          1
           nbdbuf           2
           ndtset           7
            ngfft          16      60      60
             nkpt1          4
             nkpt2          4
             nkpt3          6
             nkpt4          6
             nkpt5          6
             nkpt6          6
             nkpt7          6
             nqpt1          0
             nqpt2          0
             nqpt3          1
             nqpt4          1
             nqpt5          1
             nqpt6          1
             nqpt7          1
            nstep1        100
            nstep2        100
            nstep3        200
            nstep4        200
            nstep5        200
            nstep6        200
            nstep7        200
             nsym           8
           ntypat           1
              occ1     2.000000  0.000000
              occ3     2.000000
              occ4     2.000000
              occ5     2.000000
              occ6     2.000000
              occ7     2.000000
        optdriver1          0
        optdriver2          0
        optdriver3          1
        optdriver4          1
        optdriver5          1
        optdriver6          1
        optdriver7          1
           prtpot1          0
           prtpot2          0
           prtpot3          1
           prtpot4          1
           prtpot5          1
           prtpot6          1
           prtpot7          1
          prtkbff1          0
          prtkbff2          1
          prtkbff3          0
          prtkbff4          0
          prtkbff5          0
          prtkbff6          0
          prtkbff7          0
              qpt1     0.00000000E+00  0.00000000E+00  0.00000000E+00
              qpt2     0.00000000E+00  0.00000000E+00  0.00000000E+00
              qpt3     0.00000000E+00  0.00000000E+00  0.00000000E+00
              qpt4     0.00000000E+00  0.00000000E+00  0.00000000E+00
              qpt5     1.66666667E-01  0.00000000E+00  0.00000000E+00
              qpt6     3.33333333E-01  0.00000000E+00  0.00000000E+00
              qpt7     5.00000000E-01  0.00000000E+00  0.00000000E+00
          rfatpol           1       2
            rfdir           1       1       1
           rfelfd1          0
           rfelfd2          0
           rfelfd3          2
           rfelfd4          3
           rfelfd5          0
           rfelfd6          0
           rfelfd7          0
           rfphon1          0
           rfphon2          0
           rfphon3          0
           rfphon4          1
           rfphon5          1
           rfphon6          1
           rfphon7          1
            rprim      1.0000000000E+00  0.0000000000E+00  0.0000000000E+00
                       0.0000000000E+00  1.9313000000E+00  0.0000000000E+00
                       0.0000000000E+00  0.0000000000E+00  1.9313000000E+00
          spgroup         123
           strten1    -1.1698850839E-08  1.5175624082E-05  1.5175624082E-05
                       0.0000000000E+00  0.0000000000E+00  0.0000000000E+00
           strten4     0.0000000000E+00  0.0000000000E+00  0.0000000000E+00
                       0.0000000000E+00  0.0000000000E+00  0.0000000000E+00
           strten5     0.0000000000E+00  0.0000000000E+00  0.0000000000E+00
                       0.0000000000E+00  0.0000000000E+00  0.0000000000E+00
           strten6     0.0000000000E+00  0.0000000000E+00  0.0000000000E+00
                       0.0000000000E+00  0.0000000000E+00  0.0000000000E+00
           strten7     0.0000000000E+00  0.0000000000E+00  0.0000000000E+00
                       0.0000000000E+00  0.0000000000E+00  0.0000000000E+00
        symmorphi           0
           symrel      1  0  0   0  1  0   0  0  1       1  0  0   0  1  0   0  0 -1
                       1  0  0   0 -1  0   0  0 -1       1  0  0   0 -1  0   0  0  1
                       1  0  0   0  0  1   0  1  0       1  0  0   0  0  1   0 -1  0
                       1  0  0   0  0 -1   0 -1  0       1  0  0   0  0 -1   0  1  0
           toldfe1     1.00000000E-06 Hartree
           toldfe2     0.00000000E+00 Hartree
           toldfe3     0.00000000E+00 Hartree
           toldfe4     0.00000000E+00 Hartree
           toldfe5     0.00000000E+00 Hartree
           toldfe6     0.00000000E+00 Hartree
           toldfe7     0.00000000E+00 Hartree
           tolwfr1     0.00000000E+00
           tolwfr2     1.00000000E-12
           tolwfr3     1.00000000E-12
           tolwfr4     1.00000000E-12
           tolwfr5     1.00000000E-12
           tolwfr6     1.00000000E-12
           tolwfr7     1.00000000E-12
            typat      1  1
              wtk1       0.16667    0.33333    0.33333    0.16667
              wtk2       0.16667    0.33333    0.33333    0.16667
              wtk3       0.16667    0.16667    0.16667    0.16667    0.16667    0.16667
              wtk4       0.16667    0.16667    0.16667    0.16667    0.16667    0.16667
              wtk5       0.16667    0.16667    0.16667    0.16667    0.16667    0.16667
              wtk6       0.16667    0.16667    0.16667    0.16667    0.16667    0.16667
              wtk7       0.16667    0.16667    0.16667    0.16667    0.16667    0.16667
           xangst      0.0000000000E+00  0.0000000000E+00  0.0000000000E+00
                       7.4000007658E-01  0.0000000000E+00  0.0000000000E+00
            xcart      0.0000000000E+00  0.0000000000E+00  0.0000000000E+00
                       1.3983974831E+00  0.0000000000E+00  0.0000000000E+00
             xred      0.0000000000E+00  0.0000000000E+00  0.0000000000E+00
                       2.7007300000E-01  0.0000000000E+00  0.0000000000E+00
            znucl        1.00000

================================================================================


- Timing analysis has been suppressed with timopt=0



================================================================================

 Suggested references for the acknowledgment of ABINIT usage.

 The users of ABINIT have little formal obligations with respect to the ABINIT group
 (those specified in the GNU General Public License, http://www.gnu.org/copyleft/gpl.txt).
 However, it is common practice in the scientific literature,
 to acknowledge the efforts of people that have made the research possible.
 In this spirit, please find below suggested citations of work written by ABINIT developers,
 corresponding to implementations inside of ABINIT that you have used in the present run.
 Note also that it will be of great value to readers of publications presenting these results,
 to read papers enabling them to understand the theoretical formalism and details
 of the ABINIT implementation.
 For information on why they are suggested, see also https://docs.abinit.org/theory/acknowledgments.
-
- [1] Specification of an extensible and portable file format for electronic structure and crystallographic data
- X. Gonze, C.-O. Almbladh, A. Cucca, D. Caliste, C. Freysoldt, M. Marques, V. Olevano, Y. Pouillon, M.J. Verstraete,
- Comput. Material Science 43, 1056 (2008).
- Comment: to be cited in case the ETSF_IO file format is used, i.e. iomode=3.
- DOI and bibtex: see https://docs.abinit.org/theory/bibliography/#gonze2008
-
- [2] Preconditioning of self-consistent-field cycles in density functional theory: the extrapolar method
- P.-M. Anglade, X. Gonze, Phys. Rev. B 78, 045126 (2008).
- Comment: to be cited in case the extrapolar conditioner is used, i.e. non-vanishing iprcel.
- DOI and bibtex: see https://docs.abinit.org/theory/bibliography/#anglade2008
-
- [3] The Abinit project: Impact, environment and recent developments.
- Computer Phys. Comm. 248, 107042 (2020).
- X.Gonze, B. Amadon, G. Antonius, F.Arnardi, L.Baguet, J.-M.Beuken,
- J.Bieder, F.Bottin, J.Bouchet, E.Bousquet, N.Brouwer, F.Bruneval,
- G.Brunin, T.Cavignac, J.-B. Charraud, Wei Chen, M.Cote, S.Cottenier,
- J.Denier, G.Geneste, Ph.Ghosez, M.Giantomassi, Y.Gillet, O.Gingras,
- D.R.Hamann, G.Hautier, Xu He, N.Helbig, N.Holzwarth, Y.Jia, F.Jollet,
- W.Lafargue-Dit-Hauret, K.Lejaeghere, M.A.L.Marques, A.Martin, C.Martins,
- H.P.C. Miranda, F.Naccarato, K. Persson, G.Petretto, V.Planes, Y.Pouillon,
- S.Prokhorenko, F.Ricci, G.-M.Rignanese, A.H.Romero, M.M.Schmitt, M.Torrent,
- M.J.van Setten, B.Van Troeye, M.J.Verstraete, G.Zerah and J.W.Zwanzig
- Comment: the fifth generic paper describing the ABINIT project.
- Note that a version of this paper, that is not formatted for Computer Phys. Comm. 
- is available at https://www.abinit.org/sites/default/files/ABINIT20.pdf .
- The licence allows the authors to put it on the Web.
- DOI and bibtex: see https://docs.abinit.org/theory/bibliography/#gonze2020
-
- [4] First-principles responses of solids to atomic displacements and homogeneous electric fields:,
- implementation of a conjugate-gradient algorithm. X. Gonze, Phys. Rev. B55, 10337 (1997).
- Comment: Non-vanishing rfphon and/or rfelfd, in the norm-conserving case.
- DOI and bibtex: see https://docs.abinit.org/theory/bibliography/#gonze1997
-
- [5] Dynamical matrices, Born effective charges, dielectric permittivity tensors, and ,
- interatomic force constants from density-functional perturbation theory,
- X. Gonze and C. Lee, Phys. Rev. B55, 10355 (1997).
- Comment: Non-vanishing rfphon and/or rfelfd, in the norm-conserving case.
- DOI and bibtex: see https://docs.abinit.org/theory/bibliography/#gonze1997a
-
- [6] Optimized norm-conserving Vanderbilt pseudopotentials.
- D.R. Hamann, Phys. Rev. B 88, 085117 (2013).
- Comment: Some pseudopotential generated using the ONCVPSP code were used.
- DOI and bibtex: see https://docs.abinit.org/theory/bibliography/#hamann2013
-
- [7] ABINIT: Overview, and focus on selected capabilities
- J. Chem. Phys. 152, 124102 (2020).
- A. Romero, D.C. Allan, B. Amadon, G. Antonius, T. Applencourt, L.Baguet,
- J.Bieder, F.Bottin, J.Bouchet, E.Bousquet, F.Bruneval,
- G.Brunin, D.Caliste, M.Cote,
- J.Denier, C. Dreyer, Ph.Ghosez, M.Giantomassi, Y.Gillet, O.Gingras,
- D.R.Hamann, G.Hautier, F.Jollet, G. Jomard,
- A.Martin, 
- H.P.C. Miranda, F.Naccarato, G.Petretto, N.A. Pike, V.Planes,
- S.Prokhorenko, T. Rangel, F.Ricci, G.-M.Rignanese, M.Royo, M.Stengel, M.Torrent,
- M.J.van Setten, B.Van Troeye, M.J.Verstraete, J.Wiktor, J.W.Zwanziger, and X.Gonze.
- Comment: a global overview of ABINIT, with focus on selected capabilities .
- Note that a version of this paper, that is not formatted for J. Chem. Phys 
- is available at https://www.abinit.org/sites/default/files/ABINIT20_JPC.pdf .
- The licence allows the authors to put it on the Web.
- DOI and bibtex: see https://docs.abinit.org/theory/bibliography/#romero2020
-
- [8] Recent developments in the ABINIT software package.
- Computer Phys. Comm. 205, 106 (2016).
- X.Gonze, F.Jollet, F.Abreu Araujo, D.Adams, B.Amadon, T.Applencourt,
- C.Audouze, J.-M.Beuken, J.Bieder, A.Bokhanchuk, E.Bousquet, F.Bruneval
- D.Caliste, M.Cote, F.Dahm, F.Da Pieve, M.Delaveau, M.Di Gennaro,
- B.Dorado, C.Espejo, G.Geneste, L.Genovese, A.Gerossier, M.Giantomassi,
- Y.Gillet, D.R.Hamann, L.He, G.Jomard, J.Laflamme Janssen, S.Le Roux,
- A.Levitt, A.Lherbier, F.Liu, I.Lukacevic, A.Martin, C.Martins,
- M.J.T.Oliveira, S.Ponce, Y.Pouillon, T.Rangel, G.-M.Rignanese,
- A.H.Romero, B.Rousseau, O.Rubel, A.A.Shukri, M.Stankovski, M.Torrent,
- M.J.Van Setten, B.Van Troeye, M.J.Verstraete, D.Waroquier, J.Wiktor,
- B.Xu, A.Zhou, J.W.Zwanziger.
- Comment: the fourth generic paper describing the ABINIT project.
- Note that a version of this paper, that is not formatted for Computer Phys. Comm. 
- is available at https://www.abinit.org/sites/default/files/ABINIT16.pdf .
- The licence allows the authors to put it on the Web.
- DOI and bibtex: see https://docs.abinit.org/theory/bibliography/#gonze2016
-
- Proc.   0 individual time (sec): cpu=         24.6  wall=         49.1

================================================================================

 Calculation completed.
.Delivered   3 WARNINGs and  10 COMMENTs to log file.
+Overall time at end (sec) : cpu=         24.6  wall=         49.1
