#                                                           
#                                                           
# Y88b    /   e           e    e      888~~\    ,88~-_      
#  Y88b  /   d8b         d8b  d8b     888   |  d888   \     
#   Y88b/   /Y88b       d888bdY88b    888 _/  88888    |    
#    Y8Y   /  Y88b     / Y88Y Y888b   888  \  88888    |    
#     Y   /____Y88b   /   YY   Y888b  888   |  Y888   /     
#    /   /      Y88b /          Y888b 888__/    `88_-~      
#                                                           
#                                                           
#       Version 4.1.0 Revision 13945 Hash 8b545ac           
#                       MPI Build                           
#               http://www.yambo-code.org                   
#
# BSK|Identifier              :5907
#    |Dimension               :32
#    |Bands                   :7 - 10
#    |Exchange           [res]: yes
#    |Correlation        [res]: yes
#    |Kernel`s coupling       : no
#    |Exchange           [cpl]: no
#    |Correlation        [cpl]: no
#    |W interaction is bare   : no
#    |ALDA kernel in R-space  : no
#    |RL vectors    [exchange]:51
#    |RL vectors [correlation]:51
#    |E/h energy range    [ev]:-1.000000 - -1.000000
#    |Coupling range     [o/o]: 100.0000 -  100.0000
#  W |Interaction is diagonal : no
#    |Matrix size             :51
#    |Bands                   :1 - 60
#    |e/h energy range    [ev]:-1.000000 - -1.000000
#    |Poles              [o/o]: 100.0000
#    |RL vectors in the sum   :3473
#    |[r,Vnl] included        : yes
#    |Field direction         :0.1000E-4  0.000000  0.000000
#    |Coulomb Cutoff          :none
#    |xc-Kernel               :none
# RIM|RL components      [col]:0
#    |Random points      [col]:0
#
   CRYSTAL
   PRIMVEC
    12.47898   0.00000   0.00000
    -6.23949  10.80712   0.00000
    0.000000  0.000000  6.443175
   PRIMCOORD
    101    1
   -1   2.49580   4.32285   0.00000
       5   1.24790   0.72047   0.00000
       5   0.00000   2.88190   0.00000
       5  -1.24790   5.04332   0.00000
       5  -2.49580   7.20475   0.00000
       5  -3.74370   9.36617   0.00000
       5   3.74370   0.72047   0.00000
       5   2.49580   2.88190   0.00000
       5   1.24790   5.04332   0.00000
       5   0.00000   7.20475   0.00000
       5  -1.24790   9.36617   0.00000
       5   6.23949   0.72047   0.00000
       5   4.99159   2.88190   0.00000
       5   3.74370   5.04332   0.00000
       5   2.49580   7.20475   0.00000
       5   1.24790   9.36617   0.00000
       5   8.73529   0.72047   0.00000
       5   7.48739   2.88190   0.00000
       5   6.23949   5.04332   0.00000
       5   4.99159   7.20475   0.00000
       5   3.74369   9.36617   0.00000
       5  11.23109   0.72047   0.00000
       5   9.98319   2.88190   0.00000
       5   8.73529   5.04332   0.00000
       5   7.48739   7.20475   0.00000
       5   6.23949   9.36617   0.00000
       5  -1.24790  -0.72047   3.22159
       5  -2.49580   1.44095   3.22159
       5  -3.74370   3.60237   3.22159
       5  -4.99159   5.76380   3.22159
       5  -6.23949   7.92522   3.22159
       5   1.24790  -0.72047   3.22159
       5   0.00000   1.44095   3.22159
       5  -1.24790   3.60237   3.22159
       5  -2.49580   5.76380   3.22159
       5  -3.74370   7.92522   3.22159
       5   3.74370  -0.72047   3.22159
       5   2.49580   1.44095   3.22159
       5   1.24790   3.60237   3.22159
       5   0.00000   5.76380   3.22159
       5  -1.24790   7.92522   3.22159
       5   6.23949  -0.72047   3.22159
       5   4.99159   1.44095   3.22159
       5   3.74370   3.60237   3.22159
       5   2.49580   5.76380   3.22159
       5   1.24790   7.92522   3.22159
       5   8.73529  -0.72047   3.22159
       5   7.48739   1.44095   3.22159
       5   6.23949   3.60237   3.22159
       5   4.99159   5.76380   3.22159
       5   3.74370   7.92522   3.22159
       7  -1.24790  -0.72047   0.00000
       7  -2.49580   1.44095   0.00000
       7  -3.74370   3.60237   0.00000
       7  -4.99159   5.76380   0.00000
       7  -6.23949   7.92522   0.00000
       7   1.24790  -0.72047   0.00000
       7   0.00000   1.44095   0.00000
       7  -1.24790   3.60237   0.00000
       7  -2.49580   5.76380   0.00000
       7  -3.74370   7.92522   0.00000
       7   3.74370  -0.72047   0.00000
       7   2.49580   1.44095   0.00000
       7   1.24790   3.60237   0.00000
       7   0.00000   5.76380   0.00000
       7  -1.24790   7.92522   0.00000
       7   6.23949  -0.72047   0.00000
       7   4.99159   1.44095   0.00000
       7   3.74370   3.60237   0.00000
       7   2.49580   5.76380   0.00000
       7   1.24790   7.92522   0.00000
       7   8.73529  -0.72047   0.00000
       7   7.48739   1.44095   0.00000
       7   6.23949   3.60237   0.00000
       7   4.99159   5.76380   0.00000
       7   3.74370   7.92522   0.00000
       7   1.24790   0.72047   3.22159
       7   0.00000   2.88190   3.22159
       7  -1.24790   5.04332   3.22159
       7  -2.49580   7.20475   3.22159
       7  -3.74370   9.36617   3.22159
       7   3.74370   0.72047   3.22159
       7   2.49580   2.88190   3.22159
       7   1.24790   5.04332   3.22159
       7   0.00000   7.20475   3.22159
       7  -1.24790   9.36617   3.22159
       7   6.23949   0.72047   3.22159
       7   4.99159   2.88190   3.22159
       7   3.74370   5.04332   3.22159
       7   2.49580   7.20475   3.22159
       7   1.24790   9.36617   3.22159
       7   8.73529   0.72047   3.22159
       7   7.48739   2.88190   3.22159
       7   6.23949   5.04332   3.22159
       7   4.99159   7.20475   3.22159
       7   3.74369   9.36617   3.22159
       7  11.23109   0.72047   3.22159
       7   9.98319   2.88190   3.22159
       7   8.73529   5.04332   3.22159
       7   7.48739   7.20475   3.22159
       7   6.23949   9.36617   3.22159
   BEGIN_BLOCK_DATAGRID_2D
   Generated with YPP  4   1   0
   BEGIN_DATAGRID_2D
     46   46
    0.000000  0.000000  3.221587
    12.47898   0.00000   0.00000
    -6.23949  10.80712   0.00000
   0.4278E-3
      0.0053
     0.02712
     0.07880
    0.153183
    0.198014
    0.184378
    0.147182
    0.118129
    0.108948
    0.118128
    0.147180
    0.184378
    0.198012
    0.153182
     0.07880
     0.02713
      0.0053
   0.4278E-3
      0.0053
     0.02712
     0.07880
    0.153183
    0.198014
    0.184378
    0.147182
    0.118129
    0.108948
    0.118128
    0.147180
    0.184378
    0.198012
    0.153182
     0.07880
     0.02713
      0.0053
   0.4278E-3
      0.0053
     0.02712
     0.07880
    0.153183
    0.198014
    0.184378
    0.147182
    0.118129
   0.4278E-3
      0.0053
      0.0053
      0.0021
     0.01045
     0.05102
    0.111860
    0.131819
    0.119120
    0.103380
     0.09390
     0.09390
    0.103379
    0.119120
    0.131816
    0.111858
     0.05102
     0.01045
      0.0021
      0.0053
      0.0053
      0.0021
     0.01045
     0.05102
    0.111860
    0.131819
    0.119120
    0.103380
     0.09390
     0.09390
    0.103379
    0.119120
    0.131816
    0.111858
     0.05102
     0.01045
      0.0021
      0.0053
      0.0053
      0.0021
     0.01045
     0.05102
    0.111860
    0.131819
    0.119120
    0.103380
      0.0053
     0.02710
     0.03734
     0.02710
     0.01046
     0.02833
    0.129331
    0.180655
    0.122163
     0.08798
     0.07654
     0.07292
     0.07654
     0.08798
    0.122162
    0.180667
    0.129342
     0.02833
     0.01046
     0.02710
     0.03734
     0.02710
     0.01046
     0.02833
    0.129331
    0.180655
    0.122163
     0.08798
     0.07654
     0.07292
     0.07654
     0.08798
    0.122162
    0.180667
    0.129342
     0.02833
     0.01046
     0.02710
     0.03734
     0.02710
     0.01046
     0.02833
    0.129331
    0.180655
    0.122163
     0.08798
     0.02710
     0.07879
    0.119552
    0.119552
     0.07879
     0.05112
    0.129478
    0.270387
    0.196950
     0.09127
     0.06063
     0.05193
     0.05193
     0.06063
     0.09127
    0.196953
    0.270390
    0.129477
     0.05112
     0.07879
    0.119552
    0.119552
     0.07879
     0.05112
    0.129478
    0.270387
    0.196950
     0.09127
     0.06063
     0.05193
     0.05193
     0.06063
     0.09127
    0.196953
    0.270390
    0.129477
     0.05112
     0.07879
    0.119552
    0.119552
     0.07879
     0.05112
    0.129478
    0.270387
    0.196950
     0.09127
     0.07879
    0.153282
    0.266471
    0.340024
    0.266470
    0.153285
    0.112135
    0.181011
    0.197159
    0.104455
     0.05325
     0.03473
     0.02853
     0.03474
     0.05325
    0.104457
    0.197152
    0.181002
    0.112134
    0.153282
    0.266471
    0.340024
    0.266470
    0.153285
    0.112135
    0.181011
    0.197159
    0.104455
     0.05325
     0.03473
     0.02853
     0.03474
     0.05325
    0.104457
    0.197152
    0.181002
    0.112134
    0.153282
    0.266471
    0.340024
    0.266470
    0.153285
    0.112135
    0.181011
    0.197159
    0.104455
    0.153282
    0.198280
    0.390074
    0.666835
    0.666840
    0.390075
    0.198283
    0.132234
    0.122606
     0.09159
     0.05341
     0.02860
     0.01283
     0.01282
     0.02860
     0.05341
     0.09159
    0.122610
    0.132234
    0.198280
    0.390074
    0.666835
    0.666840
    0.390075
    0.198283
    0.132234
    0.122606
     0.09159
     0.05341
     0.02860
     0.01283
     0.01282
     0.02860
     0.05341
     0.09159
    0.122610
    0.132234
    0.198280
    0.390074
    0.666835
    0.666840
    0.390075
    0.198283
    0.132234
    0.122606
     0.09159
    0.198280
    0.184761
    0.355706
    0.725454
    0.999023
    0.725466
    0.355705
    0.184766
    0.119593
     0.08844
     0.06102
     0.03504
     0.01303
      0.0010
     0.01302
     0.03505
     0.06102
     0.08844
    0.119591
    0.184761
    0.355706
    0.725454
    0.999023
    0.725466
    0.355705
    0.184766
    0.119593
     0.08844
     0.06102
     0.03504
     0.01303
      0.0010
     0.01302
     0.03505
     0.06102
     0.08844
    0.119591
    0.184761
    0.355706
    0.725454
    0.999023
    0.725466
    0.355705
    0.184766
    0.119593
     0.08844
    0.184761
    0.147598
    0.244824
    0.463454
    0.767053
    0.767060
    0.463455
    0.244826
    0.147601
    0.103843
     0.07698
     0.05235
     0.02889
     0.01310
     0.01309
     0.02890
     0.05236
     0.07698
    0.103842
    0.147598
    0.244824
    0.463454
    0.767053
    0.767060
    0.463455
    0.244826
    0.147601
    0.103843
     0.07698
     0.05235
     0.02889
     0.01310
     0.01309
     0.02890
     0.05236
     0.07698
    0.103842
    0.147598
    0.244824
    0.463454
    0.767053
    0.767061
    0.463455
    0.244826
    0.147601
    0.103843
    0.147598
    0.118548
    0.161508
    0.248954
    0.388567
    0.475731
    0.388568
    0.248957
    0.161511
    0.118549
     0.09431
     0.07330
     0.05225
     0.03491
     0.02860
     0.03491
     0.05225
     0.07330
     0.09431
    0.118548
    0.161508
    0.248954
    0.388567
    0.475731
    0.388568
    0.248957
    0.161511
    0.118549
     0.09431
     0.07330
     0.05225
     0.03491
     0.02860
     0.03491
     0.05225
     0.07330
     0.09431
    0.118548
    0.161508
    0.248954
    0.388567
    0.475731
    0.388568
    0.248957
    0.161511
    0.118549
    0.118548
    0.109367
    0.121462
    0.145304
    0.188654
    0.234727
    0.234728
    0.188656
    0.145306
    0.121464
    0.109368
     0.09422
     0.07673
     0.06058
     0.05291
     0.05291
     0.06058
     0.07673
     0.09422
    0.109367
    0.121462
    0.145304
    0.188654
    0.234727
    0.234728
    0.188656
    0.145306
    0.121464
    0.109368
     0.09422
     0.07673
     0.06058
     0.05291
     0.05291
     0.06058
     0.07673
     0.09422
    0.109367
    0.121462
    0.145304
    0.188654
    0.234727
    0.234728
    0.188656
    0.145306
    0.121464
    0.109367
    0.118436
    0.121445
    0.113940
    0.106526
    0.107600
    0.111604
    0.107602
    0.106527
    0.113942
    0.121447
    0.118438
    0.103505
     0.08774
     0.09044
    0.103171
     0.09044
     0.08774
    0.103504
    0.118436
    0.121445
    0.113940
    0.106526
    0.107600
    0.111604
    0.107602
    0.106527
    0.113942
    0.121447
    0.118438
    0.103505
     0.08774
     0.09044
    0.103171
     0.09044
     0.08774
    0.103504
    0.118436
    0.121445
    0.113940
    0.106526
    0.107600
    0.111604
    0.107602
    0.106527
    0.113942
    0.118436
    0.147333
    0.161460
    0.145291
    0.106496
     0.06451
     0.03702
     0.03702
     0.06451
    0.106497
    0.145291
    0.161458
    0.147333
    0.118867
    0.121019
    0.194572
    0.194574
    0.121015
    0.118866
    0.147333
    0.161460
    0.145291
    0.106496
     0.06451
     0.03702
     0.03702
     0.06451
    0.106497
    0.145291
    0.161458
    0.147333
    0.118867
    0.121019
    0.194572
    0.194574
    0.121015
    0.118866
    0.147333
    0.161460
    0.145291
    0.106496
     0.06451
     0.03702
     0.03702
     0.06451
    0.106497
    0.147333
    0.184275
    0.244730
    0.248969
    0.188606
    0.107455
     0.03685
      0.0037
     0.03685
    0.107456
    0.188604
    0.248969
    0.244730
    0.184274
    0.130937
    0.178248
    0.266675
    0.178252
    0.130934
    0.184275
    0.244730
    0.248969
    0.188606
    0.107455
     0.03685
      0.0037
     0.03685
    0.107456
    0.188604
    0.248969
    0.244730
    0.184274
    0.130937
    0.178248
    0.266675
    0.178252
    0.130934
    0.184275
    0.244730
    0.248969
    0.188606
    0.107455
     0.03685
      0.0037
     0.03685
    0.107456
    0.184275
    0.197605
    0.355605
    0.463610
    0.388600
    0.234555
    0.111268
     0.03664
     0.03663
    0.111267
    0.234552
    0.388601
    0.463610
    0.355608
    0.197605
    0.110510
    0.126709
    0.126712
    0.110508
    0.197605
    0.355605
    0.463610
    0.388600
    0.234555
    0.111268
     0.03664
     0.03663
    0.111267
    0.234552
    0.388601
    0.463610
    0.355608
    0.197605
    0.110510
    0.126709
    0.126712
    0.110508
    0.197605
    0.355605
    0.463610
    0.388600
    0.234555
    0.111268
     0.03664
     0.03663
    0.111267
    0.197605
    0.152620
    0.390033
    0.725994
    0.767517
    0.475690
    0.234401
    0.107143
     0.06405
    0.107142
    0.234396
    0.475686
    0.767494
    0.725972
    0.390032
    0.152619
     0.04983
     0.02672
     0.04983
    0.152620
    0.390033
    0.725994
    0.767517
    0.475690
    0.234401
    0.107143
     0.06405
    0.107142
    0.234396
    0.475686
    0.767494
    0.725972
    0.390032
    0.152619
     0.04983
     0.02672
     0.04983
    0.152620
    0.390033
    0.725994
    0.767517
    0.475690
    0.234401
    0.107143
     0.06405
    0.107142
    0.152620
     0.07833
    0.266409
    0.667396
    1.000000
    0.767341
    0.388331
    0.188240
    0.106041
    0.106040
    0.188236
    0.388325
    0.767333
    0.999988
    0.667390
    0.266408
     0.07833
      0.0097
      0.0097
     0.07833
    0.266409
    0.667396
    1.000000
    0.767341
    0.388331
    0.188240
    0.106041
    0.106040
    0.188236
    0.388325
    0.767334
    0.999988
    0.667390
    0.266408
     0.07833
      0.0097
      0.0097
     0.07833
    0.266409
    0.667396
    1.000000
    0.767341
    0.388331
    0.188240
    0.106041
    0.106040
     0.07833
     0.02687
    0.119506
    0.340247
    0.667351
    0.725774
    0.463309
    0.248589
    0.144879
    0.113484
    0.144878
    0.248586
    0.463300
    0.725776
    0.667355
    0.340241
    0.119506
     0.02687
      0.0017
     0.02687
    0.119506
    0.340247
    0.667351
    0.725774
    0.463309
    0.248589
    0.144879
    0.113484
    0.144878
    0.248586
    0.463300
    0.725777
    0.667355
    0.340241
    0.119506
     0.02687
      0.0017
     0.02687
    0.119506
    0.340247
    0.667351
    0.725774
    0.463309
    0.248589
    0.144879
    0.113484
     0.02687
      0.0053
     0.03733
    0.119626
    0.266585
    0.390108
    0.355512
    0.244471
    0.161112
    0.121046
    0.121045
    0.161111
    0.244466
    0.355501
    0.390099
    0.266576
    0.119624
     0.03733
      0.0053
      0.0053
     0.03733
    0.119626
    0.266585
    0.390108
    0.355512
    0.244471
    0.161112
    0.121046
    0.121045
    0.161111
    0.244466
    0.355501
    0.390099
    0.266576
    0.119624
     0.03733
      0.0053
      0.0053
     0.03733
    0.119626
    0.266585
    0.390108
    0.355512
    0.244471
    0.161112
    0.121046
      0.0053
   0.4278E-3
      0.0053
     0.02712
     0.07880
    0.153183
    0.198014
    0.184378
    0.147182
    0.118129
    0.108948
    0.118128
    0.147180
    0.184378
    0.198012
    0.153182
     0.07880
     0.02713
      0.0053
   0.4278E-3
      0.0053
     0.02712
     0.07880
    0.153183
    0.198014
    0.184378
    0.147182
    0.118129
    0.108948
    0.118128
    0.147180
    0.184378
    0.198012
    0.153182
     0.07880
     0.02713
      0.0053
   0.4278E-3
      0.0053
     0.02712
     0.07880
    0.153183
    0.198014
    0.184378
    0.147182
    0.118129
   0.4278E-3
      0.0053
      0.0053
      0.0021
     0.01045
     0.05102
    0.111860
    0.131819
    0.119120
    0.103380
     0.09390
     0.09390
    0.103379
    0.119120
    0.131816
    0.111858
     0.05102
     0.01045
      0.0021
      0.0053
      0.0053
      0.0021
     0.01045
     0.05102
    0.111860
    0.131819
    0.119120
    0.103380
     0.09390
     0.09390
    0.103379
    0.119120
    0.131816
    0.111858
     0.05102
     0.01045
      0.0021
      0.0053
      0.0053
      0.0021
     0.01045
     0.05102
    0.111860
    0.131819
    0.119120
    0.103380
      0.0053
     0.02710
     0.03734
     0.02710
     0.01046
     0.02833
    0.129331
    0.180655
    0.122163
     0.08798
     0.07654
     0.07292
     0.07654
     0.08798
    0.122162
    0.180667
    0.129342
     0.02833
     0.01046
     0.02710
     0.03734
     0.02710
     0.01046
     0.02833
    0.129331
    0.180655
    0.122163
     0.08798
     0.07654
     0.07292
     0.07654
     0.08798
    0.122162
    0.180667
    0.129342
     0.02833
     0.01046
     0.02710
     0.03734
     0.02710
     0.01046
     0.02833
    0.129331
    0.180655
    0.122163
     0.08798
     0.02710
     0.07879
    0.119552
    0.119552
     0.07879
     0.05112
    0.129478
    0.270387
    0.196950
     0.09127
     0.06063
     0.05193
     0.05193
     0.06063
     0.09127
    0.196952
    0.270390
    0.129477
     0.05112
     0.07879
    0.119552
    0.119552
     0.07879
     0.05112
    0.129478
    0.270387
    0.196950
     0.09127
     0.06063
     0.05193
     0.05193
     0.06063
     0.09127
    0.196953
    0.270390
    0.129477
     0.05112
     0.07879
    0.119552
    0.119552
     0.07879
     0.05112
    0.129478
    0.270387
    0.196950
     0.09127
     0.07879
    0.153282
    0.266471
    0.340024
    0.266470
    0.153285
    0.112135
    0.181011
    0.197159
    0.104455
     0.05325
     0.03473
     0.02853
     0.03474
     0.05325
    0.104457
    0.197152
    0.181002
    0.112134
    0.153282
    0.266471
    0.340024
    0.266470
    0.153285
    0.112135
    0.181011
    0.197159
    0.104455
     0.05325
     0.03473
     0.02853
     0.03474
     0.05325
    0.104457
    0.197152
    0.181002
    0.112134
    0.153282
    0.266471
    0.340024
    0.266470
    0.153285
    0.112135
    0.181011
    0.197159
    0.104455
    0.153282
    0.198280
    0.390074
    0.666835
    0.666840
    0.390075
    0.198283
    0.132234
    0.122606
     0.09159
     0.05341
     0.02860
     0.01283
     0.01282
     0.02860
     0.05341
     0.09159
    0.122610
    0.132234
    0.198280
    0.390074
    0.666835
    0.666840
    0.390075
    0.198283
    0.132234
    0.122606
     0.09159
     0.05341
     0.02860
     0.01283
     0.01282
     0.02860
     0.05341
     0.09159
    0.122610
    0.132234
    0.198280
    0.390074
    0.666835
    0.666840
    0.390075
    0.198283
    0.132234
    0.122606
     0.09159
    0.198280
    0.184761
    0.355706
    0.725454
    0.999023
    0.725466
    0.355705
    0.184766
    0.119593
     0.08844
     0.06102
     0.03504
     0.01303
      0.0010
     0.01302
     0.03505
     0.06102
     0.08844
    0.119591
    0.184761
    0.355706
    0.725454
    0.999023
    0.725466
    0.355705
    0.184766
    0.119593
     0.08844
     0.06102
     0.03504
     0.01303
      0.0010
     0.01302
     0.03505
     0.06102
     0.08844
    0.119591
    0.184761
    0.355706
    0.725454
    0.999023
    0.725466
    0.355705
    0.184766
    0.119593
     0.08844
    0.184761
    0.147598
    0.244824
    0.463454
    0.767053
    0.767060
    0.463455
    0.244826
    0.147601
    0.103843
     0.07698
     0.05235
     0.02889
     0.01310
     0.01309
     0.02890
     0.05236
     0.07698
    0.103842
    0.147598
    0.244824
    0.463454
    0.767053
    0.767060
    0.463455
    0.244826
    0.147601
    0.103843
     0.07698
     0.05235
     0.02889
     0.01310
     0.01309
     0.02890
     0.05236
     0.07698
    0.103842
    0.147598
    0.244824
    0.463454
    0.767053
    0.767060
    0.463455
    0.244826
    0.147601
    0.103843
    0.147598
    0.118548
    0.161508
    0.248954
    0.388567
    0.475731
    0.388568
    0.248957
    0.161511
    0.118549
     0.09431
     0.07330
     0.05225
     0.03491
     0.02860
     0.03491
     0.05225
     0.07330
     0.09431
    0.118548
    0.161508
    0.248954
    0.388567
    0.475731
    0.388568
    0.248957
    0.161511
    0.118549
     0.09431
     0.07330
     0.05225
     0.03491
     0.02860
     0.03491
     0.05225
     0.07330
     0.09431
    0.118548
    0.161508
    0.248954
    0.388567
    0.475731
    0.388568
    0.248957
    0.161511
    0.118549
    0.118548
    0.109367
    0.121462
    0.145304
    0.188654
    0.234727
    0.234728
    0.188656
    0.145306
    0.121464
    0.109368
     0.09422
     0.07673
     0.06058
     0.05291
     0.05291
     0.06058
     0.07673
     0.09422
    0.109367
    0.121462
    0.145304
    0.188654
    0.234727
    0.234728
    0.188656
    0.145306
    0.121464
    0.109368
     0.09422
     0.07673
     0.06058
     0.05291
     0.05291
     0.06058
     0.07673
     0.09422
    0.109367
    0.121462
    0.145304
    0.188654
    0.234727
    0.234728
    0.188656
    0.145306
    0.121464
    0.109367
    0.118436
    0.121445
    0.113940
    0.106526
    0.107600
    0.111604
    0.107602
    0.106527
    0.113942
    0.121447
    0.118438
    0.103505
     0.08774
     0.09044
    0.103171
     0.09044
     0.08774
    0.103504
    0.118436
    0.121445
    0.113940
    0.106526
    0.107600
    0.111604
    0.107602
    0.106527
    0.113942
    0.121447
    0.118438
    0.103505
     0.08774
     0.09044
    0.103171
     0.09044
     0.08774
    0.103504
    0.118436
    0.121445
    0.113940
    0.106526
    0.107600
    0.111604
    0.107602
    0.106527
    0.113942
    0.118436
    0.147333
    0.161460
    0.145291
    0.106496
     0.06451
     0.03702
     0.03702
     0.06451
    0.106497
    0.145291
    0.161458
    0.147333
    0.118867
    0.121019
    0.194572
    0.194574
    0.121015
    0.118866
    0.147333
    0.161460
    0.145291
    0.106496
     0.06451
     0.03702
     0.03702
     0.06451
    0.106497
    0.145291
    0.161458
    0.147333
    0.118867
    0.121019
    0.194572
    0.194574
    0.121015
    0.118866
    0.147333
    0.161460
    0.145291
    0.106496
     0.06451
     0.03702
     0.03702
     0.06451
    0.106497
    0.147333
    0.184275
    0.244730
    0.248969
    0.188606
    0.107455
     0.03685
      0.0037
     0.03685
    0.107456
    0.188604
    0.248969
    0.244730
    0.184274
    0.130937
    0.178248
    0.266675
    0.178252
    0.130934
    0.184275
    0.244730
    0.248969
    0.188606
    0.107455
     0.03685
      0.0037
     0.03685
    0.107456
    0.188604
    0.248969
    0.244730
    0.184274
    0.130937
    0.178248
    0.266675
    0.178252
    0.130934
    0.184275
    0.244730
    0.248969
    0.188606
    0.107455
     0.03685
      0.0037
     0.03685
    0.107456
    0.184275
    0.197605
    0.355605
    0.463610
    0.388600
    0.234555
    0.111268
     0.03664
     0.03663
    0.111267
    0.234552
    0.388601
    0.463610
    0.355608
    0.197605
    0.110510
    0.126709
    0.126712
    0.110508
    0.197605
    0.355605
    0.463610
    0.388600
    0.234555
    0.111268
     0.03664
     0.03663
    0.111267
    0.234552
    0.388601
    0.463610
    0.355608
    0.197605
    0.110510
    0.126709
    0.126712
    0.110508
    0.197605
    0.355605
    0.463610
    0.388600
    0.234555
    0.111268
     0.03664
     0.03663
    0.111267
    0.197605
    0.152620
    0.390033
    0.725994
    0.767517
    0.475690
    0.234401
    0.107143
     0.06405
    0.107142
    0.234396
    0.475686
    0.767494
    0.725972
    0.390032
    0.152619
     0.04983
     0.02672
     0.04983
    0.152620
    0.390033
    0.725994
    0.767517
    0.475690
    0.234401
    0.107143
     0.06405
    0.107142
    0.234396
    0.475686
    0.767494
    0.725972
    0.390032
    0.152619
     0.04983
     0.02672
     0.04983
    0.152620
    0.390033
    0.725994
    0.767517
    0.475690
    0.234401
    0.107143
     0.06405
    0.107142
    0.152620
     0.07833
    0.266409
    0.667396
    1.000000
    0.767341
    0.388331
    0.188240
    0.106041
    0.106040
    0.188236
    0.388325
    0.767333
    0.999988
    0.667390
    0.266408
     0.07833
      0.0097
      0.0097
     0.07833
    0.266409
    0.667396
    1.000000
    0.767341
    0.388331
    0.188240
    0.106041
    0.106040
    0.188236
    0.388325
    0.767333
    0.999988
    0.667390
    0.266408
     0.07833
      0.0097
      0.0097
     0.07833
    0.266409
    0.667396
    1.000000
    0.767341
    0.388331
    0.188240
    0.106041
    0.106040
     0.07833
     0.02687
    0.119506
    0.340247
    0.667351
    0.725774
    0.463309
    0.248589
    0.144879
    0.113484
    0.144878
    0.248586
    0.463300
    0.725776
    0.667355
    0.340241
    0.119506
     0.02687
      0.0017
     0.02687
    0.119506
    0.340247
    0.667351
    0.725774
    0.463309
    0.248589
    0.144879
    0.113484
    0.144878
    0.248586
    0.463300
    0.725776
    0.667355
    0.340241
    0.119506
     0.02687
      0.0017
     0.02687
    0.119506
    0.340247
    0.667351
    0.725774
    0.463309
    0.248589
    0.144879
    0.113484
     0.02687
      0.0053
     0.03733
    0.119626
    0.266585
    0.390108
    0.355512
    0.244471
    0.161112
    0.121046
    0.121045
    0.161111
    0.244466
    0.355501
    0.390099
    0.266576
    0.119624
     0.03733
      0.0053
      0.0053
     0.03733
    0.119626
    0.266585
    0.390108
    0.355512
    0.244471
    0.161112
    0.121046
    0.121045
    0.161111
    0.244466
    0.355501
    0.390099
    0.266576
    0.119624
     0.03733
      0.0053
      0.0053
     0.03733
    0.119626
    0.266585
    0.390108
    0.355512
    0.244471
    0.161112
    0.121046
      0.0053
   0.4278E-3
      0.0053
     0.02712
     0.07880
    0.153183
    0.198014
    0.184378
    0.147182
    0.118129
    0.108948
    0.118128
    0.147180
    0.184377
    0.198012
    0.153182
     0.07880
     0.02713
      0.0053
   0.4278E-3
      0.0053
     0.02712
     0.07880
    0.153183
    0.198014
    0.184378
    0.147182
    0.118129
    0.108948
    0.118128
    0.147180
    0.184377
    0.198012
    0.153182
     0.07880
     0.02713
      0.0053
   0.4278E-3
      0.0053
     0.02712
     0.07880
    0.153183
    0.198014
    0.184378
    0.147182
    0.118129
   0.4278E-3
      0.0053
      0.0053
      0.0021
     0.01045
     0.05102
    0.111860
    0.131819
    0.119120
    0.103380
     0.09390
     0.09390
    0.103379
    0.119120
    0.131816
    0.111858
     0.05102
     0.01045
      0.0021
      0.0053
      0.0053
      0.0021
     0.01045
     0.05102
    0.111860
    0.131819
    0.119120
    0.103380
     0.09390
     0.09390
    0.103379
    0.119120
    0.131816
    0.111858
     0.05102
     0.01045
      0.0021
      0.0053
      0.0053
      0.0021
     0.01045
     0.05102
    0.111860
    0.131819
    0.119120
    0.103380
      0.0053
     0.02710
     0.03734
     0.02710
     0.01046
     0.02833
    0.129331
    0.180655
    0.122163
     0.08798
     0.07654
     0.07292
     0.07654
     0.08798
    0.122162
    0.180667
    0.129342
     0.02833
     0.01046
     0.02710
     0.03734
     0.02710
     0.01046
     0.02833
    0.129331
    0.180655
    0.122163
     0.08798
     0.07654
     0.07292
     0.07654
     0.08798
    0.122162
    0.180667
    0.129342
     0.02833
     0.01046
     0.02710
     0.03734
     0.02710
     0.01046
     0.02833
    0.129331
    0.180655
    0.122163
     0.08798
     0.02710
     0.07879
    0.119552
    0.119552
     0.07879
     0.05112
    0.129478
    0.270387
    0.196950
     0.09127
     0.06063
     0.05193
     0.05193
     0.06063
     0.09127
    0.196952
    0.270390
    0.129477
     0.05112
     0.07879
    0.119552
    0.119552
     0.07879
     0.05112
    0.129478
    0.270387
    0.196950
     0.09127
     0.06063
     0.05193
     0.05193
     0.06063
     0.09127
    0.196953
    0.270390
    0.129477
     0.05112
     0.07879
    0.119552
    0.119552
     0.07879
     0.05112
    0.129478
    0.270387
    0.196950
     0.09127
     0.07879