  ABINIT 
  
  Give name for formatted input file: 
Fe_noSO.in
  Give name for formatted output file:
Fe_e50_k4_noSO.out
  Give root name for generic input files:
Fe_e50_k4_noSO.i
  Give root name for generic output files:
Fe_e50_k4_noSO.o
  Give root name for generic temporary files:
Fe_e50_k4_noSO.tmp

 herald :  WARNING -
  The starting date is more than 3 years after the initial release
  of this version of ABINIT, namely Aug 2013.
  This version of ABINIT is not supported anymore.
  Action : please, switch to a more recent version of ABINIT.

.Version 7.4.1 of ABINIT 
.(MPI version, prepared for a x86_64_linux_gnu5.4 computer) 

.Copyright (C) 1998-2013 ABINIT group . 
 ABINIT comes with ABSOLUTELY NO WARRANTY.
 It is free software, and you are welcome to redistribute it
 under certain conditions (GNU General Public License,
 see ~abinit/COPYING or http://www.gnu.org/copyleft/gpl.txt).

 ABINIT is a project of the Universite Catholique de Louvain,
 Corning Inc. and other collaborators, see ~abinit/doc/developers/contributors.txt .
 Please read ~abinit/doc/users/acknowledgments.html for suggested
 acknowledgments of the ABINIT effort.
 For more information, see http://www.abinit.org .

.Starting date : Tue 24 Jul 2018.
- ( at 15h13 )
  

 herald :  WARNING -
  The starting date is more than 3 years after the initial release
  of this version of ABINIT, namely Aug 2013.
  This version of ABINIT is not supported anymore.
  Action : please, switch to a more recent version of ABINIT.

 herald :  WARNING -
  The starting date is more than 3 years after the initial release
  of this version of ABINIT, namely Aug 2013.
  This version of ABINIT is not supported anymore.
  Action : please, switch to a more recent version of ABINIT.

 ++++++++++++++++++++++++++++++++++++++++++++++++++++++++++++++++++++++++++++++

 === Build Information === 
  Version       : 7.4.1
  Build target  : x86_64_linux_gnu5.4
  Build date    : 20180724

 === Compiler Suite === 
  C compiler       : gnu5.4
  CFLAGS           :  -g -O2 -mtune=native -march=native
  C++ compiler     : gnu5.4
  CXXFLAGS         :  -g -O2 -mtune=native -march=native
  Fortran compiler : gnu5.4
  FCFLAGS          :  -g -ffree-line-length-none
  FC_LDFLAGS       : 

 === Optimizations === 
  Debug level        : basic
  Optimization level : standard
  Architecture       : unknown_unknown

 === MPI === 
  Parallel build : yes
  Parallel I/O   : auto
  Time tracing   : no
  GPU support    : no

 === Connectors / Fallbacks === 
  Connectors on : yes
  Fallbacks on  : yes
  DFT flavor    : none
  FFT flavor    : none
  LINALG flavor : netlib
  MATH flavor   : none
  TIMER flavor  : abinit
  TRIO flavor   : none

 === Experimental features === 
  Bindings            : no
  Exports             : no
  GW double-precision : no

 ++++++++++++++++++++++++++++++++++++++++++++++++++++++++++++++++++++++++++++++


 ++++++++++++++++++++++++++++++++++++++++++++++++++++++++++++++++++++++++++++++
 Default optimizations:
   -O2 -mtune=native -march=native


 ++++++++++++++++++++++++++++++++++++++++++++++++++++++++++++++++++++++++++++++


 ++++++++++++++++++++++++++++++++++++++++++++++++++++++++++++++++++++++++++++++
 CPP options activated during the build:

                    CC_GNU                   CXX_GNU                    FC_GNU

 HAVE_FC_ALLOCATABLE_DT...      HAVE_FC_COMMAND_LINE        HAVE_FC_CONTIGUOUS

           HAVE_FC_CPUTIME              HAVE_FC_EXIT             HAVE_FC_FLUSH

             HAVE_FC_GAMMA            HAVE_FC_GETENV          HAVE_FC_INT_QUAD

             HAVE_FC_IOMSG     HAVE_FC_ISO_C_BINDING        HAVE_FC_LONG_LINES

              HAVE_FC_NULL         HAVE_FC_STREAM_IO          HAVE_FORTRAN2003

               HAVE_LINALG        HAVE_LINALG_SERIAL                  HAVE_MPI

                 HAVE_MPI2               HAVE_MPI_IO HAVE_MPI_TYPE_CREATE_S...

                HAVE_NUMPY             HAVE_OS_LINUX                HAVE_TIMER

         HAVE_TIMER_ABINIT            HAVE_TIMER_MPI         HAVE_TIMER_SERIAL

 ++++++++++++++++++++++++++++++++++++++++++++++++++++++++++++++++++++++++++++++

- input  file    -> Fe_noSO.in
- output file    -> Fe_e50_k4_noSO.out
- root for input  files -> Fe_e50_k4_noSO.i
- root for output files -> Fe_e50_k4_noSO.o

-instrng :    62 lines of input have been read from file Fe_noSO.in


 iofn2 : Please give name of formatted atomic psp file
 iofn2 : for atom type   1 , psp file is 26fe.16.hgh
  read the values zionpsp= 16.0 , pspcod=   3 , lmax=   2

 inpspheads : deduce mpsang  =   3, n1xccc  =   0.

 invars1m : enter jdtset=     1
 invars1 : treat image number     1

 symlatt : the Bravais lattice is cI (body-centered cubic)
  xred   is defined in input file
 ingeo : takes atomic coordinates from input array xred

 symlatt : the Bravais lattice is cI (body-centered cubic)

 symlatt : the Bravais lattice is cI (body-centered cubic)
 symspgr : the symmetry operation no.   1 is the identity
 symspgr : the symmetry operation no.   2 is an inversion
 symaxes : the symmetry operation no.   3 is a 2-axis
 symplanes : the symmetry operation no.   4 is a mirror plane
 symaxes : the symmetry operation no.   5 is a 2-axis
 symplanes : the symmetry operation no.   6 is a mirror plane
 symaxes : the symmetry operation no.   7 is a 2-axis
 symplanes : the symmetry operation no.   8 is a mirror plane
 symplanes : the symmetry operation no.   9 is a mirror plane
 symaxes : the symmetry operation no.  10 is a 2-axis
 symspgr : the symmetry operation no.  11 is a -4 axis
 symaxes : the symmetry operation no.  12 is a 4-axis
 symplanes : the symmetry operation no.  13 is a mirror plane
 symaxes : the symmetry operation no.  14 is a 2-axis
 symspgr : the symmetry operation no.  15 is a -4 axis
 symaxes : the symmetry operation no.  16 is a 4-axis
 symaxes : the symmetry operation no.  17 is a 3-axis
 symspgr : the symmetry operation no.  18 is a -3 axis
 symaxes : the symmetry operation no.  19 is a 3-axis
 symspgr : the symmetry operation no.  20 is a -3 axis
 symaxes : the symmetry operation no.  21 is a 3-axis
 symspgr : the symmetry operation no.  22 is a -3 axis
 symaxes : the symmetry operation no.  23 is a 3-axis
 symspgr : the symmetry operation no.  24 is a -3 axis
 symplanes : the symmetry operation no.  25 is a mirror plane
 symaxes : the symmetry operation no.  26 is a 2-axis
 symspgr : the symmetry operation no.  27 is a -4 axis
 symaxes : the symmetry operation no.  28 is a 4-axis
 symspgr : the symmetry operation no.  29 is a -4 axis
 symaxes : the symmetry operation no.  30 is a 4-axis
 symplanes : the symmetry operation no.  31 is a mirror plane
 symaxes : the symmetry operation no.  32 is a 2-axis
 symaxes : the symmetry operation no.  33 is a 3-axis
 symspgr : the symmetry operation no.  34 is a -3 axis
 symaxes : the symmetry operation no.  35 is a 3-axis
 symspgr : the symmetry operation no.  36 is a -3 axis
 symaxes : the symmetry operation no.  37 is a 3-axis
 symspgr : the symmetry operation no.  38 is a -3 axis
 symaxes : the symmetry operation no.  39 is a 3-axis
 symspgr : the symmetry operation no.  40 is a -3 axis
 symplanes : the symmetry operation no.  41 is a mirror plane
 symaxes : the symmetry operation no.  42 is a 2-axis
 symplanes : the symmetry operation no.  43 is a mirror plane
 symaxes : the symmetry operation no.  44 is a 2-axis
 symspgr : the symmetry operation no.  45 is a -4 axis
 symaxes : the symmetry operation no.  46 is a 4-axis
 symspgr : the symmetry operation no.  47 is a -4 axis
 symaxes : the symmetry operation no.  48 is a 4-axis
 symspgr : the symmetry operation no.  49 is a pure translation
 symspgr : the symmetry operation no.  50 is an inversion
 symaxes : the symmetry operation no.  51 is a 2_1-axis
 symplanes : the symmetry operation no.  52 is a primary n plane
 symaxes : the symmetry operation no.  53 is a 2_1-axis
 symplanes : the symmetry operation no.  54 is a primary n plane
 symaxes : the symmetry operation no.  55 is a 2_1-axis
 symplanes : the symmetry operation no.  56 is a primary n plane
 symplanes : the symmetry operation no.  57 is a tertiary n plane
 symaxes : the symmetry operation no.  58 is a 2-axis
 symspgr : the symmetry operation no.  59 is a -4 axis
 symaxes : the symmetry operation no.  60 is a 4_2-axis
 symplanes : the symmetry operation no.  61 is a tertiary n plane
 symaxes : the symmetry operation no.  62 is a 2_1-axis
 symspgr : the symmetry operation no.  63 is a -4 axis
 symaxes : the symmetry operation no.  64 is a 4_2-axis
 symaxes : the symmetry operation no.  65 is a 3-axis
 symspgr : the symmetry operation no.  66 is a -3 axis
 symaxes : the symmetry operation no.  67 is a 3, 3_1 or 3_2 axis
 symspgr : the symmetry operation no.  68 is a -3 axis
 symaxes : the symmetry operation no.  69 is a 3, 3_1 or 3_2 axis
 symspgr : the symmetry operation no.  70 is a -3 axis
 symaxes : the symmetry operation no.  71 is a 3, 3_1 or 3_2 axis
 symspgr : the symmetry operation no.  72 is a -3 axis
 symplanes : the symmetry operation no.  73 is a tertiary n plane
 symaxes : the symmetry operation no.  74 is a 2-axis
 symspgr : the symmetry operation no.  75 is a -4 axis
 symaxes : the symmetry operation no.  76 is a 4_2-axis
 symspgr : the symmetry operation no.  77 is a -4 axis
 symaxes : the symmetry operation no.  78 is a 4_2-axis
 symplanes : the symmetry operation no.  79 is a tertiary n plane
 symaxes : the symmetry operation no.  80 is a 2_1-axis
 symaxes : the symmetry operation no.  81 is a 3-axis
 symspgr : the symmetry operation no.  82 is a -3 axis
 symaxes : the symmetry operation no.  83 is a 3, 3_1 or 3_2 axis
 symspgr : the symmetry operation no.  84 is a -3 axis
 symaxes : the symmetry operation no.  85 is a 3, 3_1 or 3_2 axis
 symspgr : the symmetry operation no.  86 is a -3 axis
 symaxes : the symmetry operation no.  87 is a 3, 3_1 or 3_2 axis
 symspgr : the symmetry operation no.  88 is a -3 axis
 symplanes : the symmetry operation no.  89 is a tertiary n plane
 symaxes : the symmetry operation no.  90 is a 2-axis
 symplanes : the symmetry operation no.  91 is a tertiary n plane
 symaxes : the symmetry operation no.  92 is a 2_1-axis
 symspgr : the symmetry operation no.  93 is a -4 axis
 symaxes : the symmetry operation no.  94 is a 4_2-axis
 symspgr : the symmetry operation no.  95 is a -4 axis
 symaxes : the symmetry operation no.  96 is a 4_2-axis
 symspgr : spgroup= 229  Im -3 m   (=Oh^9)
 getkgrid : length of smallest supercell vector (bohr)=    3.755086E+01
       Simple Lattice Grid
 symkpt : found identity, with number  1

 invars1m : enter jdtset=     2
 invars1 : treat image number     1

 symlatt : the Bravais lattice is cI (body-centered cubic)
  xred   is defined in input file
 ingeo : takes atomic coordinates from input array xred

 symlatt : the Bravais lattice is cI (body-centered cubic)

 symlatt : the Bravais lattice is cI (body-centered cubic)
 symspgr : the symmetry operation no.   1 is the identity
 symspgr : the symmetry operation no.   2 is an inversion
 symaxes : the symmetry operation no.   3 is a 2-axis
 symplanes : the symmetry operation no.   4 is a mirror plane
 symaxes : the symmetry operation no.   5 is a 2-axis
 symplanes : the symmetry operation no.   6 is a mirror plane
 symaxes : the symmetry operation no.   7 is a 2-axis
 symplanes : the symmetry operation no.   8 is a mirror plane
 symplanes : the symmetry operation no.   9 is a mirror plane
 symaxes : the symmetry operation no.  10 is a 2-axis
 symspgr : the symmetry operation no.  11 is a -4 axis
 symaxes : the symmetry operation no.  12 is a 4-axis
 symplanes : the symmetry operation no.  13 is a mirror plane
 symaxes : the symmetry operation no.  14 is a 2-axis
 symspgr : the symmetry operation no.  15 is a -4 axis
 symaxes : the symmetry operation no.  16 is a 4-axis
 symaxes : the symmetry operation no.  17 is a 3-axis
 symspgr : the symmetry operation no.  18 is a -3 axis
 symaxes : the symmetry operation no.  19 is a 3-axis
 symspgr : the symmetry operation no.  20 is a -3 axis
 symaxes : the symmetry operation no.  21 is a 3-axis
 symspgr : the symmetry operation no.  22 is a -3 axis
 symaxes : the symmetry operation no.  23 is a 3-axis
 symspgr : the symmetry operation no.  24 is a -3 axis
 symplanes : the symmetry operation no.  25 is a mirror plane
 symaxes : the symmetry operation no.  26 is a 2-axis
 symspgr : the symmetry operation no.  27 is a -4 axis
 symaxes : the symmetry operation no.  28 is a 4-axis
 symspgr : the symmetry operation no.  29 is a -4 axis
 symaxes : the symmetry operation no.  30 is a 4-axis
 symplanes : the symmetry operation no.  31 is a mirror plane
 symaxes : the symmetry operation no.  32 is a 2-axis
 symaxes : the symmetry operation no.  33 is a 3-axis
 symspgr : the symmetry operation no.  34 is a -3 axis
 symaxes : the symmetry operation no.  35 is a 3-axis
 symspgr : the symmetry operation no.  36 is a -3 axis
 symaxes : the symmetry operation no.  37 is a 3-axis
 symspgr : the symmetry operation no.  38 is a -3 axis
 symaxes : the symmetry operation no.  39 is a 3-axis
 symspgr : the symmetry operation no.  40 is a -3 axis
 symplanes : the symmetry operation no.  41 is a mirror plane
 symaxes : the symmetry operation no.  42 is a 2-axis
 symplanes : the symmetry operation no.  43 is a mirror plane
 symaxes : the symmetry operation no.  44 is a 2-axis
 symspgr : the symmetry operation no.  45 is a -4 axis
 symaxes : the symmetry operation no.  46 is a 4-axis
 symspgr : the symmetry operation no.  47 is a -4 axis
 symaxes : the symmetry operation no.  48 is a 4-axis
 symspgr : the symmetry operation no.  49 is a pure translation
 symspgr : the symmetry operation no.  50 is an inversion
 symaxes : the symmetry operation no.  51 is a 2_1-axis
 symplanes : the symmetry operation no.  52 is a primary n plane
 symaxes : the symmetry operation no.  53 is a 2_1-axis
 symplanes : the symmetry operation no.  54 is a primary n plane
 symaxes : the symmetry operation no.  55 is a 2_1-axis
 symplanes : the symmetry operation no.  56 is a primary n plane
 symplanes : the symmetry operation no.  57 is a tertiary n plane
 symaxes : the symmetry operation no.  58 is a 2-axis
 symspgr : the symmetry operation no.  59 is a -4 axis
 symaxes : the symmetry operation no.  60 is a 4_2-axis
 symplanes : the symmetry operation no.  61 is a tertiary n plane
 symaxes : the symmetry operation no.  62 is a 2_1-axis
 symspgr : the symmetry operation no.  63 is a -4 axis
 symaxes : the symmetry operation no.  64 is a 4_2-axis
 symaxes : the symmetry operation no.  65 is a 3-axis
 symspgr : the symmetry operation no.  66 is a -3 axis
 symaxes : the symmetry operation no.  67 is a 3, 3_1 or 3_2 axis
 symspgr : the symmetry operation no.  68 is a -3 axis
 symaxes : the symmetry operation no.  69 is a 3, 3_1 or 3_2 axis
 symspgr : the symmetry operation no.  70 is a -3 axis
 symaxes : the symmetry operation no.  71 is a 3, 3_1 or 3_2 axis
 symspgr : the symmetry operation no.  72 is a -3 axis
 symplanes : the symmetry operation no.  73 is a tertiary n plane
 symaxes : the symmetry operation no.  74 is a 2-axis
 symspgr : the symmetry operation no.  75 is a -4 axis
 symaxes : the symmetry operation no.  76 is a 4_2-axis
 symspgr : the symmetry operation no.  77 is a -4 axis
 symaxes : the symmetry operation no.  78 is a 4_2-axis
 symplanes : the symmetry operation no.  79 is a tertiary n plane
 symaxes : the symmetry operation no.  80 is a 2_1-axis
 symaxes : the symmetry operation no.  81 is a 3-axis
 symspgr : the symmetry operation no.  82 is a -3 axis
 symaxes : the symmetry operation no.  83 is a 3, 3_1 or 3_2 axis
 symspgr : the symmetry operation no.  84 is a -3 axis
 symaxes : the symmetry operation no.  85 is a 3, 3_1 or 3_2 axis
 symspgr : the symmetry operation no.  86 is a -3 axis
 symaxes : the symmetry operation no.  87 is a 3, 3_1 or 3_2 axis
 symspgr : the symmetry operation no.  88 is a -3 axis
 symplanes : the symmetry operation no.  89 is a tertiary n plane
 symaxes : the symmetry operation no.  90 is a 2-axis
 symplanes : the symmetry operation no.  91 is a tertiary n plane
 symaxes : the symmetry operation no.  92 is a 2_1-axis
 symspgr : the symmetry operation no.  93 is a -4 axis
 symaxes : the symmetry operation no.  94 is a 4_2-axis
 symspgr : the symmetry operation no.  95 is a -4 axis
 symaxes : the symmetry operation no.  96 is a 4_2-axis
 symspgr : spgroup= 229  Im -3 m   (=Oh^9)
 getkgrid : length of smallest supercell vector (bohr)=    1.877543E+01
       Simple Lattice Grid
 symkpt : found identity, with number  1
 invars2: read the value of fband=  2.00000000E+00 from input file.
 getkgrid : length of smallest supercell vector (bohr)=    3.755086E+01
       Simple Lattice Grid
 symkpt : found identity, with number  1
  dtset%nelect=   16.000000000000000     
 chkneu : initialized the occupation numbers for occopt=    7
    spin up   values :
  1.00  1.00  1.00  1.00  1.00  1.00  1.00  1.00  0.00  0.00
    spin down values :
  1.00  1.00  1.00  1.00  1.00  1.00  1.00  1.00  0.00  0.00
 getkgrid : length of smallest supercell vector (bohr)=    1.877543E+01
       Simple Lattice Grid
 symkpt : found identity, with number  1
  dtset%nelect=   16.000000000000000     
 chkneu : initialized the occupation numbers for occopt=    7
    spin up   values :
  1.00  1.00  1.00  1.00  1.00  1.00  1.00  1.00  0.00  0.00  0.00  0.00
  0.00  0.00  0.00
    spin down values :
  1.00  1.00  1.00  1.00  1.00  1.00  1.00  1.00  0.00  0.00  0.00  0.00
  0.00  0.00  0.00
  mpi_setup : enter 
 mpi_setup1: mkmem  undefined in the input file. Use default mkmem  = nkpt
 mpi_setup1: With nkpt_me=   26 and mkmem  =    26, ground state wf handled in core.
 mpi_setup1: mkqmem undefined in the input file. Use default mkqmem = nkpt
 mpi_setup1: With nkpt_me=   26 and mkqmem =    26, ground state wf handled in core.
 mpi_setup1: mk1mem undefined in the input file. Use default mk1mem = nkpt
 mpi_setup1: With nkpt_me=   26 and mk1mem =    26, ground state wf handled in core.

 getng.F90:200:WARNING
   The second and third dimension of the FFT grid,    0    0  were imposed to be multiple of the number of processors for the FFT,    1
 For input ecut=  5.000000E+01 best grid ngfft=      30      30      30
       max ecut=  5.039558E+01

 ==== FFT mesh ====
  FFT mesh divisions ........................    30   30   30
  Augmented FFT divisions ...................    31   31   30
  FFT algorithm .............................   112
  FFT cache size ............................    16
 getmpw: optimal value of mpw=    1365

 mpi_setup : WARNING -
 For non ground state calculation, set bandpp, npfft, npband, npspinor and npkpt to 1
 mpi_setup1: mkmem  undefined in the input file. Use default mkmem  = nkpt
 mpi_setup1: With nkpt_me=    6 and mkmem  =     6, ground state wf handled in core.
 mpi_setup1: mkqmem undefined in the input file. Use default mkqmem = nkpt
 mpi_setup1: With nkpt_me=    6 and mkqmem =     6, ground state wf handled in core.
 mpi_setup1: mk1mem undefined in the input file. Use default mk1mem = nkpt
 mpi_setup1: With nkpt_me=    6 and mk1mem =     6, ground state wf handled in core.
 For input ecut=  5.000000E+01 best grid ngfft=      30      30      30
       max ecut=  5.039558E+01

 ==== FFT mesh ====
  FFT mesh divisions ........................    30   30   30
  Augmented FFT divisions ...................    31   31   30
  FFT algorithm .............................   112
  FFT cache size ............................    16
 getmpw: optimal value of mpw=    1358

 DATASET    1 : space group Im -3 m (#229); Bravais cI (body-center cubic)

 getdim_nloc : deduce lmnmax  =  13, lnmax  =   5,
                      lmnmaxso=  24, lnmaxso=   8.
 setmqgrid : COMMENT -
  The number of points "mqgrid" in reciprocal space used for the
  description of the pseudopotentials has been set automatically
  by abinit to :     3001.
 memory : analysis of memory needs
================================================================================
 Values of the parameters that define the memory need for DATASET  1.
   intxc =         0  ionmov =         0    iscf =         7 xclevel =         1
  lmnmax =         5   lnmax =         5   mband =        10  mffmem =         1
P  mgfft =        30   mkmem =        26 mpssoang=         3     mpw =      1365
  mqgrid =      3001   natom =         1    nfft =     27000    nkpt =        26
  nloalg =         4  nspden =         2 nspinor =         1  nsppol =         2
    nsym =        48  n1xccc =         0  ntypat =         1  occopt =         7
================================================================================
P This job should need less than                      24.471 Mbytes of memory.
  Rough estimation (10% accuracy) of disk space for files :
_ WF disk file :     10.833 Mbytes ; DEN or POT disk file :      0.414 Mbytes.
================================================================================

 Biggest array : cg(disk), with     10.8327 MBytes.
 memana : allocated an array of     10.833 Mbytes, for testing purposes.
 memana : allocated      24.471 Mbytes, for testing purposes.
 The job will continue.

 DATASET    2 : space group Im -3 m (#229); Bravais cI (body-center cubic)

 getdim_nloc : deduce lmnmax  =  13, lnmax  =   5,
                      lmnmaxso=  24, lnmaxso=   8.
 setmqgrid : COMMENT -
  The number of points "mqgrid" in reciprocal space used for the
  description of the pseudopotentials has been set automatically
  by abinit to :     3001.
 memory : analysis of memory needs
================================================================================
 Values of the parameters that define the memory need for DATASET  2.
   intxc =         0  ionmov =         0    iscf =        -2 xclevel =         1
  lmnmax =         5   lnmax =         5   mband =        15  mffmem =         1
P  mgfft =        30   mkmem =         6 mpssoang=         3     mpw =      1358
  mqgrid =      3001   natom =         1    nfft =     27000    nkpt =         6
  nloalg =         4  nspden =         2 nspinor =         1  nsppol =         2
    nsym =        48  n1xccc =         0  ntypat =         1  occopt =         7
================================================================================
P This job should need less than                      10.422 Mbytes of memory.
  Rough estimation (10% accuracy) of disk space for files :
_ WF disk file :      3.732 Mbytes ; DEN or POT disk file :      0.414 Mbytes.
================================================================================

 Biggest array : cg(disk), with      3.7319 MBytes.
 memana : allocated an array of      3.732 Mbytes, for testing purposes.
 memana : allocated      10.422 Mbytes, for testing purposes.
 The job will continue.
--------------------------------------------------------------------------------
------------- Echo of variables that govern the present computation ------------
--------------------------------------------------------------------------------
-
- outvars: echo of selected default values                                      
-   accesswff0 =  0 , fftalg0 =112 , wfoptalg0 =  0
-
- outvars: echo of global parameters not present in the input file              
-  max_nthreads =    0
-
 -outvars: echo values of preprocessed input variables --------
            acell      5.4200000000E+00  5.4200000000E+00  5.4200000000E+00 Bohr
              amu      5.58470000E+01
             ecut      5.00000000E+01 Hartree
           enunit           1
           getden1          0
           getden2          1
             iscf1          7
             iscf2         -2
           jdtset        1    2
              kpt1     6.25000000E-02  6.25000000E-02  6.25000000E-02
                       1.87500000E-01  6.25000000E-02  6.25000000E-02
                       3.12500000E-01  6.25000000E-02  6.25000000E-02
                       4.37500000E-01  6.25000000E-02  6.25000000E-02
                      -6.25000000E-02  6.25000000E-02  6.25000000E-02
                       1.87500000E-01  1.87500000E-01  6.25000000E-02
                       3.12500000E-01  1.87500000E-01  6.25000000E-02
                      -1.87500000E-01  1.87500000E-01  6.25000000E-02
                       3.12500000E-01  3.12500000E-01  6.25000000E-02
                      -3.12500000E-01  3.12500000E-01  6.25000000E-02
                      -1.87500000E-01  3.12500000E-01  6.25000000E-02
                      -4.37500000E-01  4.37500000E-01  6.25000000E-02
                      -3.12500000E-01  4.37500000E-01  6.25000000E-02
                      -4.37500000E-01 -4.37500000E-01  6.25000000E-02
                      -3.12500000E-01 -4.37500000E-01  6.25000000E-02
                       1.87500000E-01  1.87500000E-01  1.87500000E-01
                       3.12500000E-01  1.87500000E-01  1.87500000E-01
                      -1.87500000E-01  1.87500000E-01  1.87500000E-01
                      -3.12500000E-01  3.12500000E-01  1.87500000E-01
                      -4.37500000E-01  4.37500000E-01  1.87500000E-01
                      -3.12500000E-01  4.37500000E-01  1.87500000E-01
                      -4.37500000E-01 -4.37500000E-01  1.87500000E-01
                      -3.12500000E-01  3.12500000E-01  3.12500000E-01
                      -4.37500000E-01  4.37500000E-01  3.12500000E-01
                      -4.37500000E-01 -4.37500000E-01  3.12500000E-01
                      -4.37500000E-01  4.37500000E-01  4.37500000E-01
              kpt2     1.25000000E-01  1.25000000E-01  1.25000000E-01
                       3.75000000E-01  1.25000000E-01  1.25000000E-01
                      -1.25000000E-01  1.25000000E-01  1.25000000E-01
                      -3.75000000E-01  3.75000000E-01  1.25000000E-01
                      -3.75000000E-01 -3.75000000E-01  1.25000000E-01
                      -3.75000000E-01  3.75000000E-01  3.75000000E-01
           kptopt           4
         kptrlatt1       8    0    0      0    8    0      0    0    8
         kptrlatt2       4    0    0      0    4    0      0    0    4
          kptrlen1     3.75508615E+01
          kptrlen2     1.87754308E+01
          kssform1          1
          kssform2          3
P           mkmem1         26
P           mkmem2          6
            natom           1
            nband1         10
            nband2         15
         nbandkss1          0
         nbandkss2         13
           nbdbuf1          0
           nbdbuf2         10
           ndtset           2
            ngfft          30      30      30
             nkpt1         26
             nkpt2          6
           nspden           2
           nsppol           2
            nstep1        100
            nstep2        300
             nsym          48
           ntypat           1
              occ      1.000000  1.000000  1.000000  1.000000  1.000000  1.000000
                       1.000000  1.000000  0.000000  0.000000
                       1.000000  1.000000  1.000000  1.000000  1.000000  1.000000
                       1.000000  1.000000  0.000000  0.000000
                       1.000000  1.000000  1.000000  1.000000  1.000000  1.000000
                       1.000000  1.000000  0.000000  0.000000
                       1.000000  1.000000  1.000000  1.000000  1.000000  1.000000
                       1.000000  1.000000  0.000000  0.000000
                       1.000000  1.000000  1.000000  1.000000  1.000000  1.000000
                       1.000000  1.000000  0.000000  0.000000
                       1.000000  1.000000  1.000000  1.000000  1.000000  1.000000
                       1.000000  1.000000  0.000000  0.000000
                       1.000000  1.000000  1.000000  1.000000  1.000000  1.000000
                       1.000000  1.000000  0.000000  0.000000
                       1.000000  1.000000  1.000000  1.000000  1.000000  1.000000
                       1.000000  1.000000  0.000000  0.000000
                       1.000000  1.000000  1.000000  1.000000  1.000000  1.000000
                       1.000000  1.000000  0.000000  0.000000
                       1.000000  1.000000  1.000000  1.000000  1.000000  1.000000
                       1.000000  1.000000  0.000000  0.000000
                       1.000000  1.000000  1.000000  1.000000  1.000000  1.000000
                       1.000000  1.000000  0.000000  0.000000
                       1.000000  1.000000  1.000000  1.000000  1.000000  1.000000
                       1.000000  1.000000  0.000000  0.000000
                       1.000000  1.000000  1.000000  1.000000  1.000000  1.000000
                       1.000000  1.000000  0.000000  0.000000
                       1.000000  1.000000  1.000000  1.000000  1.000000  1.000000
                       1.000000  1.000000  0.000000  0.000000
                       1.000000  1.000000  1.000000  1.000000  1.000000  1.000000
                       1.000000  1.000000  0.000000  0.000000
                       1.000000  1.000000  1.000000  1.000000  1.000000  1.000000
                       1.000000  1.000000  0.000000  0.000000
                       1.000000  1.000000  1.000000  1.000000  1.000000  1.000000
                       1.000000  1.000000  0.000000  0.000000
                       1.000000  1.000000  1.000000  1.000000  1.000000  1.000000
                       1.000000  1.000000  0.000000  0.000000
                       1.000000  1.000000  1.000000  1.000000  1.000000  1.000000
                       1.000000  1.000000  0.000000  0.000000
                       1.000000  1.000000  1.000000  1.000000  1.000000  1.000000
                       1.000000  1.000000  0.000000  0.000000
                       1.000000  1.000000  1.000000  1.000000  1.000000  1.000000
                       1.000000  1.000000  0.000000  0.000000
                       1.000000  1.000000  1.000000  1.000000  1.000000  1.000000
                       1.000000  1.000000  0.000000  0.000000
                       1.000000  1.000000  1.000000  1.000000  1.000000  1.000000
                       1.000000  1.000000  0.000000  0.000000
                       1.000000  1.000000  1.000000  1.000000  1.000000  1.000000
                       1.000000  1.000000  0.000000  0.000000
                       1.000000  1.000000  1.000000  1.000000  1.000000  1.000000
                       1.000000  1.000000  0.000000  0.000000
                       1.000000  1.000000  1.000000  1.000000  1.000000  1.000000
                       1.000000  1.000000  0.000000  0.000000
                       1.000000  1.000000  1.000000  1.000000  1.000000  1.000000
                       1.000000  1.000000  0.000000  0.000000
                       1.000000  1.000000  1.000000  1.000000  1.000000  1.000000
                       1.000000  1.000000  0.000000  0.000000
                       1.000000  1.000000  1.000000  1.000000  1.000000  1.000000
                       1.000000  1.000000  0.000000  0.000000
                       1.000000  1.000000  1.000000  1.000000  1.000000  1.000000
                       1.000000  1.000000  0.000000  0.000000
                       1.000000  1.000000  1.000000  1.000000  1.000000  1.000000
                       1.000000  1.000000  0.000000  0.000000
                       1.000000  1.000000  1.000000  1.000000  1.000000  1.000000
                       1.000000  1.000000  0.000000  0.000000
                       1.000000  1.000000  1.000000  1.000000  1.000000  1.000000
                       1.000000  1.000000  0.000000  0.000000
                       1.000000  1.000000  1.000000  1.000000  1.000000  1.000000
                       1.000000  1.000000  0.000000  0.000000
                       1.000000  1.000000  1.000000  1.000000  1.000000  1.000000
                       1.000000  1.000000  0.000000  0.000000
                       1.000000  1.000000  1.000000  1.000000  1.000000  1.000000
                       1.000000  1.000000  0.000000  0.000000
                       1.000000  1.000000  1.000000  1.000000  1.000000  1.000000
                       1.000000  1.000000  0.000000  0.000000
                       1.000000  1.000000  1.000000  1.000000  1.000000  1.000000
                       1.000000  1.000000  0.000000  0.000000
                       1.000000  1.000000  1.000000  1.000000  1.000000  1.000000
                       1.000000  1.000000  0.000000  0.000000
                       1.000000  1.000000  1.000000  1.000000  1.000000  1.000000
                       1.000000  1.000000  0.000000  0.000000
                       1.000000  1.000000  1.000000  1.000000  1.000000  1.000000
                       1.000000  1.000000  0.000000  0.000000
                       1.000000  1.000000  1.000000  1.000000  1.000000  1.000000
                       1.000000  1.000000  0.000000  0.000000
                       1.000000  1.000000  1.000000  1.000000  1.000000  1.000000
                       1.000000  1.000000  0.000000  0.000000
                       1.000000  1.000000  1.000000  1.000000  1.000000  1.000000
                       1.000000  1.000000  0.000000  0.000000
                       1.000000  1.000000  1.000000  1.000000  1.000000  1.000000
                       1.000000  1.000000  0.000000  0.000000
                       1.000000  1.000000  1.000000  1.000000  1.000000  1.000000
                       1.000000  1.000000  0.000000  0.000000
                       1.000000  1.000000  1.000000  1.000000  1.000000  1.000000
                       1.000000  1.000000  0.000000  0.000000
                       1.000000  1.000000  1.000000  1.000000  1.000000  1.000000
                       1.000000  1.000000  0.000000  0.000000
                       1.000000  1.000000  1.000000  1.000000  1.000000  1.000000
                       1.000000  1.000000  0.000000  0.000000
                       1.000000  1.000000  1.000000  1.000000  1.000000  1.000000
                       1.000000  1.000000  0.000000  0.000000
                       1.000000  1.000000  1.000000  1.000000  1.000000  1.000000
                       1.000000  1.000000  0.000000  0.000000
                       1.000000  1.000000  1.000000  1.000000  1.000000  1.000000
                       1.000000  1.000000  0.000000  0.000000
           occopt           7
            rprim     -5.0000000000E-01  5.0000000000E-01  5.0000000000E-01
                       5.0000000000E-01 -5.0000000000E-01  5.0000000000E-01
                       5.0000000000E-01  5.0000000000E-01 -5.0000000000E-01
           shiftk      5.00000000E-01  5.00000000E-01  5.00000000E-01
           so_psp           0
          spgroup         229
           spinat      0.0000000000E+00  0.0000000000E+00  5.0000000000E+00
        symmorphi1          1
        symmorphi2          0
           symrel      1  0  0   0  1  0   0  0  1      -1  0  0   0 -1  0   0  0 -1
                      -1 -1 -1   0  0  1   0  1  0       1  1  1   0  0 -1   0 -1  0
                       0  1  0   1  0  0  -1 -1 -1       0 -1  0  -1  0  0   1  1  1
                       0  0  1  -1 -1 -1   1  0  0       0  0 -1   1  1  1  -1  0  0
                       0  1  0   1  0  0   0  0  1       0 -1  0  -1  0  0   0  0 -1
                      -1 -1 -1   0  0  1   1  0  0       1  1  1   0  0 -1  -1  0  0
                       1  0  0   0  1  0  -1 -1 -1      -1  0  0   0 -1  0   1  1  1
                       0  0  1  -1 -1 -1   0  1  0       0  0 -1   1  1  1   0 -1  0
                      -1 -1 -1   1  0  0   0  0  1       1  1  1  -1  0  0   0  0 -1
                       0  1  0   0  0  1   1  0  0       0 -1  0   0  0 -1  -1  0  0
                       1  0  0  -1 -1 -1   0  1  0      -1  0  0   1  1  1   0 -1  0
                       0  0  1   0  1  0  -1 -1 -1       0  0 -1   0 -1  0   1  1  1
                       1  0  0  -1 -1 -1   0  0  1      -1  0  0   1  1  1   0  0 -1
                       0  1  0   0  0  1  -1 -1 -1       0 -1  0   0  0 -1   1  1  1
                      -1 -1 -1   1  0  0   0  1  0       1  1  1  -1  0  0   0 -1  0
                       0  0  1   0  1  0   1  0  0       0  0 -1   0 -1  0  -1  0  0
                       0  1  0  -1 -1 -1   0  0  1       0 -1  0   1  1  1   0  0 -1
                       1  0  0   0  0  1  -1 -1 -1      -1  0  0   0  0 -1   1  1  1
                      -1 -1 -1   0  1  0   1  0  0       1  1  1   0 -1  0  -1  0  0
                       0  0  1   1  0  0   0  1  0       0  0 -1  -1  0  0   0 -1  0
                      -1 -1 -1   0  1  0   0  0  1       1  1  1   0 -1  0   0  0 -1
                       1  0  0   0  0  1   0  1  0      -1  0  0   0  0 -1   0 -1  0
                       0  1  0  -1 -1 -1   1  0  0       0 -1  0   1  1  1  -1  0  0
                       0  0  1   1  0  0  -1 -1 -1       0  0 -1  -1  0  0   1  1  1
           toldfe1     1.00000000E-08 Hartree
           toldfe2     0.00000000E+00 Hartree
           tolwfr1     0.00000000E+00
           tolwfr2     1.00000000E-10
           tsmear      5.00000000E-03 Hartree
            typat      1
              wtk1       0.01563    0.04688    0.04688    0.02344    0.01172    0.04688
                         0.09375    0.04688    0.01563    0.04688    0.04688    0.04688
                         0.09375    0.04688    0.04688    0.01563    0.02344    0.01172
                         0.04688    0.04688    0.04688    0.04688    0.01172    0.04688
                         0.01563    0.01172
              wtk2       0.12500    0.18750    0.09375    0.37500    0.12500    0.09375
            znucl       26.00000

================================================================================

 chkinp: machine precision is   2.2204460492503131E-16

 chkinp: Checking input parameters for consistency, jdtset=   1.

 chkinp: Checking input parameters for consistency, jdtset=   2.
 Checking if input is consistent with KSS generation
 DATA TYPE INFORMATION: 
 REAL:      Data type name: REAL(DP) 
            Kind value:      8
            Precision:      15
            Smallest nonnegligible quantity relative to 1:  0.22204460E-15
            Smallest positive number:                       0.22250739-307
            Largest representable number:                   0.17976931+309
 INTEGER:   Data type name: INTEGER(default) 
            Kind value: 4
            Bit size:   32
            Largest representable number: 2147483647
 LOGICAL:   Data type name: LOGICAL 
            Kind value: 4
 CHARACTER: Data type name: CHARACTER             Kind value: 1
 ==== OpenMP parallelism is OFF ====
 
  ==== Using MPI-2 specifications ==== 
  MPI-IO support is ON
  xmpi_tag_ub ................   2147483647
  xmpi_bsize_ch ..............            1
  xmpi_bsize_int .............            4
  xmpi_bsize_sp ..............            4
  xmpi_bsize_dp ..............            8
  xmpi_bsize_spc .............            8
  xmpi_bsize_dpc .............           16
  xmpio_bsize_frm ............            4
  xmpi_address_kind ..........            8
  xmpi_offset_kind ...........            8
  MPI_WTICK ..................    9.9999999999999995E-007

================================================================================
== DATASET  1 ==================================================================
-   nproc =    1

 setmqgrid : COMMENT -
  The number of points "mqgrid" in reciprocal space used for the
  description of the pseudopotentials has been set automatically
  by abinit to :     3001.

 getdim_nloc : deduce lmnmax  =  13, lnmax  =   5,
                      lmnmaxso=  24, lnmaxso=   8.
 Exchange-correlation functional for the present dataset will be:
  LDA: new Teter (4/93) with spin-polarized option - ixc=1
 Citation for XC functional:
  S. Goedecker, M. Teter, J. Huetter, PRB 54, 1703 (1996)

 Unit cell volume ucvol=  7.9610044E+01 bohr^3
 Angles (23,13,12)=  1.09471221E+02  1.09471221E+02  1.09471221E+02 degrees

 getcut: wavevector=  0.0000  0.0000  0.0000  ngfft=  30  30  30
         ecut(hartree)=     50.000   => boxcut(ratio)=   2.00790
- pspini: atom type   1  psp file is 26fe.16.hgh
- pspatm: opening atomic psp file    26fe.16.hgh
- Hartwigsen-Goedecker-Hutter psp for Fe,  from PRB58, 3641 (1998)
- 26.00000  16.00000     10605                znucl, zion, pspdat
    3    1    2    0      2001   0.00000      pspcod,pspxc,lmax,lloc,mmax,r2well
 rloc=   0.3600000
 cc1 =   5.3925070; cc2 =  -0.0300660; cc3 =   0.0000000; cc4 =   0.0000000
 rrs =   0.2692680; h11s=  10.1937230; h22s=  -6.8349820; h33s=   0.0000000
 rrp =   0.2476860; h11p=   0.1456130; h22p=  -5.2349540; h33p=   0.0000000
                    k11p=   0.2014500; k22p=  -0.0758290; k33p=   0.0000000
 rrd =   0.2230210; h11d= -12.0269410; h22d=   0.0000000; h33d=   0.0000000
                    k11d=   0.0103220; k22d=   0.0000000; k33d=   0.0000000
-  Local part computed in reciprocal space.

 pspatm : COMMENT -
  the projectors are not normalized,
  so that the KB energies are not consistent with 
  definition in PRB44, 8503 (1991). 
  However, this does not influence the results obtained hereafter.
 pspatm: epsatm=   16.92502289
         --- l  ekb(1:nproj) -->
             0   -0.500862    0.733315
             1   -0.039838    0.006202
             2   -0.004680
 pspatm: atomic psp has been read  and splines computed

   2.70800366E+02                                ecore*ucvol(ha*bohr**3)
   1  1  1  1  1  1  1  1  1  1  1  1  1  1  1  1  1  1  1  1  1  1  1  1
   1  1  1  1  1  1  1  1  1  1  1  1  1  1  1  1  1  1  1  1  1  1  1  1
 newkpt: spin channel isppol2 =     1
 wfconv:    10 bands initialized randomly with npw=  1355, for ikpt=     1
 wfconv:    10 bands initialized randomly with npw=  1351, for ikpt=     2
 wfconv:    10 bands initialized randomly with npw=  1339, for ikpt=     3
 wfconv:    10 bands initialized randomly with npw=  1342, for ikpt=     4
 wfconv:    10 bands initialized randomly with npw=  1361, for ikpt=     5
 wfconv:    10 bands initialized randomly with npw=  1346, for ikpt=     6
 wfconv:    10 bands initialized randomly with npw=  1337, for ikpt=     7
 wfconv:    10 bands initialized randomly with npw=  1360, for ikpt=     8
 wfconv:    10 bands initialized randomly with npw=  1337, for ikpt=     9
 wfconv:    10 bands initialized randomly with npw=  1345, for ikpt=    10
 wfconv:    10 bands initialized randomly with npw=  1348, for ikpt=    11
 wfconv:    10 bands initialized randomly with npw=  1347, for ikpt=    12
 wfconv:    10 bands initialized randomly with npw=  1347, for ikpt=    13
 wfconv:    10 bands initialized randomly with npw=  1345, for ikpt=    14
 wfconv:    10 bands initialized randomly with npw=  1337, for ikpt=    15
 wfconv:    10 bands initialized randomly with npw=  1331, for ikpt=    16
 wfconv:    10 bands initialized randomly with npw=  1346, for ikpt=    17
 wfconv:    10 bands initialized randomly with npw=  1365, for ikpt=    18
 wfconv:    10 bands initialized randomly with npw=  1346, for ikpt=    19
 wfconv:    10 bands initialized randomly with npw=  1336, for ikpt=    20
 wfconv:    10 bands initialized randomly with npw=  1337, for ikpt=    21
 wfconv:    10 bands initialized randomly with npw=  1343, for ikpt=    22
 wfconv:    10 bands initialized randomly with npw=  1349, for ikpt=    23
 wfconv:    10 bands initialized randomly with npw=  1345, for ikpt=    24
 wfconv:    10 bands initialized randomly with npw=  1334, for ikpt=    25
 wfconv:    10 bands initialized randomly with npw=  1320, for ikpt=    26
 newkpt: spin channel isppol2 =     2
 wfconv:    10 bands initialized randomly with npw=  1355, for ikpt=     1
 wfconv:    10 bands initialized randomly with npw=  1351, for ikpt=     2
 wfconv:    10 bands initialized randomly with npw=  1339, for ikpt=     3
 wfconv:    10 bands initialized randomly with npw=  1342, for ikpt=     4
 wfconv:    10 bands initialized randomly with npw=  1361, for ikpt=     5
 wfconv:    10 bands initialized randomly with npw=  1346, for ikpt=     6
 wfconv:    10 bands initialized randomly with npw=  1337, for ikpt=     7
 wfconv:    10 bands initialized randomly with npw=  1360, for ikpt=     8
 wfconv:    10 bands initialized randomly with npw=  1337, for ikpt=     9
 wfconv:    10 bands initialized randomly with npw=  1345, for ikpt=    10
 wfconv:    10 bands initialized randomly with npw=  1348, for ikpt=    11
 wfconv:    10 bands initialized randomly with npw=  1347, for ikpt=    12
 wfconv:    10 bands initialized randomly with npw=  1347, for ikpt=    13
 wfconv:    10 bands initialized randomly with npw=  1345, for ikpt=    14
 wfconv:    10 bands initialized randomly with npw=  1337, for ikpt=    15
 wfconv:    10 bands initialized randomly with npw=  1331, for ikpt=    16
 wfconv:    10 bands initialized randomly with npw=  1346, for ikpt=    17
 wfconv:    10 bands initialized randomly with npw=  1365, for ikpt=    18
 wfconv:    10 bands initialized randomly with npw=  1346, for ikpt=    19
 wfconv:    10 bands initialized randomly with npw=  1336, for ikpt=    20
 wfconv:    10 bands initialized randomly with npw=  1337, for ikpt=    21
 wfconv:    10 bands initialized randomly with npw=  1343, for ikpt=    22
 wfconv:    10 bands initialized randomly with npw=  1349, for ikpt=    23
 wfconv:    10 bands initialized randomly with npw=  1345, for ikpt=    24
 wfconv:    10 bands initialized randomly with npw=  1334, for ikpt=    25
 wfconv:    10 bands initialized randomly with npw=  1320, for ikpt=    26

_setup2: Arith. and geom. avg. npw (full set) are    1343.973    1343.953
 initro : for itypat=  1, take decay length=      0.6000,
 initro : indeed, coreel=     10.0000, nval= 16 and densty=  0.0000E+00.

================================================================================

 getcut: wavevector=  0.0000  0.0000  0.0000  ngfft=  30  30  30
         ecut(hartree)=     50.000   => boxcut(ratio)=   2.00790

 ewald : nr and ng are    1 and   25

 ITER STEP NUMBER     1
 vtorho : nnsclo_now=  2, note that nnsclo,dbl_nnsclo,istep=  0 0  1
  ****  In vtorho for isppol=           1
  ****  In vtorho for isppol=           2
 newocc : new Fermi energy is      -1.079609 , with nelect=     16.000000
  Number of bissection calls =  49
 newocc : computed new occupation numbers for occopt=    7
  (1) spin up   values
 1.000 1.000 1.000 1.000 1.000 1.000 1.000 1.000 0.000 0.000
 1.000 1.000 1.000 1.000 1.000 1.000 1.000 1.000 0.000 0.000
 1.000 1.000 1.000 1.000 1.000 1.000 1.000 1.000 1.000 0.000
 1.000 1.000 1.000 1.000 1.000 1.000 1.000 1.000 1.000 0.000
 1.000 1.000 1.000 1.000 1.000 1.000 1.000 1.000 1.000 0.000
 1.000 1.000 1.000 1.000 1.000 1.000 1.000 1.000 1.000 0.000
 1.000 1.000 1.000 1.000 1.000 1.000 1.000 1.000 0.000 0.000
 1.000 1.000 1.000 1.000 1.000 1.000 1.000 1.000 0.000 0.000
 1.000 1.000 1.000 1.000 1.000 1.000 1.000 1.000 0.000 0.000
 1.000 1.000 1.000 1.000 1.000 1.000 1.000 1.000 0.000 0.000
 1.000 1.000 1.000 1.000 1.000 1.000 1.000 1.000 0.000 0.000
 1.000 1.000 1.000 1.000 1.000 1.000 1.000 1.000 0.000 0.000
 1.000 1.000 1.000 1.000 1.000 1.000 1.000 1.000 1.000 0.000
 1.000 1.000 1.000 1.000 1.000 1.000 1.000 1.000 1.000 0.000
 1.000 1.000 1.000 1.000 1.000 1.000 1.000 1.000 1.000 0.000
 1.000 1.000 1.000 1.000 1.000 1.000 1.000 1.000 1.000 0.000
 1.000 1.000 1.000 1.000 1.000 1.000 1.000 1.000 1.000 0.000
 1.000 1.000 1.000 1.000 1.000 1.000 1.000 1.000 0.000 0.000
 1.000 1.000 1.000 1.000 1.000 1.000 1.000 1.000 1.000 0.000
 1.000 1.000 1.000 1.000 1.000 1.000 1.000 1.000 0.000 0.000
 1.000 1.000 1.000 1.000 1.000 1.000 1.000 1.000 0.000 0.000
 1.000 1.000 1.000 1.000 1.000 1.000 1.000 1.000 1.000 0.000
 1.000 1.000 1.000 1.000 1.000 1.000 1.000 1.000 0.000 0.000
 1.000 1.000 1.000 1.000 1.000 1.000 1.000 1.000 0.000 0.000
 1.000 1.000 1.000 1.000 1.000 1.000 1.000 1.000 1.000 0.000
 1.000 1.000 1.000 1.000 1.000 1.000 1.000 1.000 1.000 0.000
  (2) spin down values
 1.000 1.000 1.000 1.000 1.000 1.000 1.000 1.000 0.000 0.000
 1.000 1.000 1.000 1.000 1.000 1.000 1.000 1.000 0.239 0.000
 1.000 1.000 1.000 1.000 1.000 1.000 1.000 0.000 0.000 0.000
 1.000 1.000 1.000 1.000 1.000 1.000 1.000 0.000 0.000 0.000
 1.000 1.000 1.000 1.000 1.000 1.000 1.000 1.000 1.000 0.000
 1.000 1.000 1.000 1.000 1.000 1.000 1.000 1.000 0.000 0.000
 1.000 1.000 1.000 1.000 1.000 1.000 1.000 0.000 0.000 0.000
 1.000 1.000 1.000 1.000 1.000 1.000 1.000 1.000 0.000 0.000
 1.000 1.000 1.000 1.000 1.000 1.000 1.000 0.000 0.000 0.000
 1.000 1.000 1.000 1.000 1.000 1.000 1.000 1.000 0.000 0.000
 1.000 1.000 1.000 1.000 1.000 1.000 1.000 0.000 0.000 0.000
 1.000 1.000 1.000 1.000 1.000 1.000 1.000 0.568 0.000 0.000
 1.000 1.000 1.000 1.000 1.000 1.000 1.000 1.000 0.000 0.000
 1.000 1.000 1.000 1.000 1.000 1.000 1.000 0.817 0.000 0.000
 1.000 1.000 1.000 1.000 1.000 1.000 1.000 0.129 0.000 0.000
 1.000 1.000 1.000 1.000 1.000 1.000 1.000 0.000 0.000 0.000
 1.000 1.000 1.000 1.000 1.000 1.000 1.000 0.409 0.000 0.000
 1.000 1.000 1.000 1.000 1.000 1.000 1.000 1.000 0.000 0.000
 1.000 1.000 1.000 1.000 1.000 1.000 1.000 0.631 0.000 0.000
 1.000 1.000 1.000 1.000 1.000 1.000 1.000 0.000 0.000 0.000
 1.000 1.000 1.000 1.000 1.000 1.000 1.000 0.653 0.000 0.000
 1.000 1.000 1.000 1.000 1.000 1.000 1.000 0.007 0.000 0.000
 1.000 1.000 1.000 1.000 1.000 1.000 1.000 1.000 0.000 0.000
 1.000 1.000 1.000 1.000 1.000 1.000 1.000 0.000 0.000 0.000
 1.000 1.000 1.000 1.000 1.000 1.000 1.000 1.000 0.000 0.000
 1.000 1.000 1.000 1.000 1.000 1.000 1.000 1.000 0.000 0.000
mkrho: echo density (plane-wave part only)
 Total charge density [el/Bohr^3]
,     Maximum=    6.4942E+00  at reduced coord.    0.8667    0.9333    0.9333
,     Minimum=    8.8863E-04  at reduced coord.    0.7000    0.4667    0.1667
,  Integrated=    1.6000E+01
 Spin up density      [el/Bohr^3]
,     Maximum=    3.4365E+00  at reduced coord.    0.8667    0.9333    0.9333
,     Minimum=    5.9750E-04  at reduced coord.    0.7333    0.4667    0.2000
,  Integrated=    8.4766E+00
 Spin down density    [el/Bohr^3]
,     Maximum=    3.0576E+00  at reduced coord.    0.8667    0.9333    0.9333
,     Minimum=    2.7422E-04  at reduced coord.    0.6333    0.3667    0.0000
,  Integrated=    7.5234E+00
 Magnetization (spin up - spin down) [el/Bohr^3]
,     Maximum=    4.3215E-01  at reduced coord.    0.0000    0.9000    0.9000
,     Minimum=    2.8849E-04  at reduced coord.    0.7333    0.5000    0.2333
,  Integrated=    9.5312E-01
 Relative magnetization (=zeta, between -1 and 1)
,     Maximum=    4.0565E-01  at reduced coord.    0.3667    0.3667    0.7333
,     Minimum=    2.2309E-02  at reduced coord.    0.0000    0.0000    0.0000
 Total charge density [el/Bohr^3]
,     Maximum=    6.4942E+00  at reduced coord.    0.8667    0.9333    0.9333
,     Minimum=    8.8863E-04  at reduced coord.    0.7000    0.4667    0.1667
,  Integrated=    1.6000E+01
 Spin up density      [el/Bohr^3]
,     Maximum=    3.4365E+00  at reduced coord.    0.8667    0.9333    0.9333
,     Minimum=    5.9750E-04  at reduced coord.    0.7333    0.4667    0.2000
,  Integrated=    8.4766E+00
 Spin down density    [el/Bohr^3]
,     Maximum=    3.0576E+00  at reduced coord.    0.8667    0.9333    0.9333
,     Minimum=    2.7422E-04  at reduced coord.    0.6333    0.3667    0.0000
,  Integrated=    7.5234E+00
 Magnetization (spin up - spin down) [el/Bohr^3]
,     Maximum=    4.3215E-01  at reduced coord.    0.0000    0.9000    0.9000
,     Minimum=    2.8849E-04  at reduced coord.    0.7333    0.5000    0.2333
,  Integrated=    9.5312E-01
 Relative magnetization (=zeta, between -1 and 1)
,     Maximum=    4.0565E-01  at reduced coord.    0.3667    0.3667    0.7333
,     Minimum=    2.2309E-02  at reduced coord.    0.0000    0.0000    0.0000
 ETOT  1  -111.06611864568    -1.11E+02 3.48E+00 8.56E+04 0.953
 scprqt: <Vxc>= -3.1133824E-01 hartree

Simple mixing update:
  residual square of the potential :   53997.432584566421

 ITER STEP NUMBER     2
 vtorho : nnsclo_now=  2, note that nnsclo,dbl_nnsclo,istep=  0 0  2
  ****  In vtorho for isppol=           1
  ****  In vtorho for isppol=           2
 newocc : new Fermi energy is       1.171853 , with nelect=     16.000000
  Number of bissection calls =  48
 newocc : computed new occupation numbers for occopt=    7
  (1) spin up   values
 1.000 1.000 1.000 1.000 1.000 1.000 1.000 1.000 1.000 1.000
 1.000 1.000 1.000 1.000 1.000 1.000 1.000 0.952 0.251 0.002
 1.000 1.000 1.000 1.000 1.000 1.000 1.000 0.000 0.000 0.000
 1.000 1.000 1.000 1.000 1.000 1.000 1.000 0.000 0.000 0.000
 1.000 1.000 1.000 1.000 1.000 1.000 1.000 1.000 1.000 0.000
 1.000 1.000 1.000 1.000 1.000 1.000 1.000 0.000 0.000 0.000
 1.000 1.000 1.000 1.000 1.000 1.000 1.000 0.000 0.000 0.000
 1.000 1.000 1.000 1.000 1.000 1.000 1.000 1.000 1.000 0.000
 1.000 1.000 1.000 1.000 1.000 1.000 1.000 0.000 0.000 0.000
 1.000 1.000 1.000 1.000 1.000 1.000 1.000 1.000 0.000 0.000
 1.000 1.000 1.000 1.000 1.000 1.000 1.000 1.000 0.112 0.000
 1.000 1.000 1.000 1.000 1.000 1.000 1.000 1.000 0.000 0.000
 1.000 1.000 1.000 1.000 1.000 1.000 1.000 1.000 0.000 0.000
 1.000 1.000 1.000 1.000 1.000 1.000 1.000 1.000 0.000 0.000
 1.000 1.000 1.000 1.000 1.000 1.000 1.000 1.000 0.000 0.000
 1.000 1.000 1.000 1.000 1.000 1.000 1.000 0.000 0.000 0.000
 1.000 1.000 1.000 1.000 1.000 1.000 1.000 1.000 0.000 0.000
 1.000 1.000 1.000 1.000 1.000 1.000 1.000 1.000 1.000 0.000
 1.000 1.000 1.000 1.000 1.000 1.000 1.000 1.000 0.000 0.000
 1.000 1.000 1.000 1.000 1.000 1.000 1.000 1.000 0.000 0.000
 1.000 1.000 1.000 1.000 1.000 1.000 1.000 1.000 1.000 0.000
 1.000 1.000 1.000 1.000 1.000 1.000 1.000 1.000 1.000 0.000
 1.000 1.000 1.000 1.000 1.000 1.000 1.000 1.000 1.000 0.000
 1.000 1.000 1.000 1.000 1.000 1.000 1.000 1.000 1.000 0.000
 1.000 1.000 1.000 1.000 1.000 1.000 1.000 1.000 1.000 0.000
 1.000 1.000 1.000 1.000 1.000 1.000 1.000 1.000 1.000 0.000
  (2) spin down values
 1.000 1.000 1.000 1.000 1.000 1.000 1.000 1.000 0.986 0.985
 1.000 1.000 1.000 1.000 1.000 1.000 1.000 0.000 0.000 0.000
 1.000 1.000 1.000 1.000 1.000 1.000 1.000 0.000 0.000 0.000
 1.000 1.000 1.000 1.000 1.000 1.000 1.000 0.000 0.000 0.000
 1.000 1.000 1.000 1.000 1.000 1.000 1.000 1.000 1.000 0.000
 1.000 1.000 1.000 1.000 1.000 1.000 1.000 0.000 0.000 0.000
 1.000 1.000 1.000 1.000 1.000 1.000 1.000 0.000 0.000 0.000
 1.000 1.000 1.000 1.000 1.000 1.000 1.000 1.000 1.000 0.000
 1.000 1.000 1.000 1.000 1.000 1.000 1.000 0.000 0.000 0.000
 1.000 1.000 1.000 1.000 1.000 1.000 1.000 1.000 0.000 0.000
 1.000 1.000 1.000 1.000 1.000 1.000 1.000 1.000 0.000 0.000
 1.000 1.000 1.000 1.000 1.000 1.000 1.000 1.000 0.000 0.000
 1.000 1.000 1.000 1.000 1.000 1.000 1.000 1.000 0.000 0.000
 1.000 1.000 1.000 1.000 1.000 1.000 1.000 1.000 0.000 0.000
 1.000 1.000 1.000 1.000 1.000 1.000 1.000 1.000 0.000 0.000
 1.000 1.000 1.000 1.000 1.000 1.000 1.000 0.000 0.000 0.000
 1.000 1.000 1.000 1.000 1.000 1.000 1.000 1.000 0.000 0.000
 1.000 1.000 1.000 1.000 1.000 1.000 1.000 1.000 1.000 0.000
 1.000 1.000 1.000 1.000 1.000 1.000 1.000 1.000 0.000 0.000
 1.000 1.000 1.000 1.000 1.000 1.000 1.000 1.000 0.000 0.000
 1.000 1.000 1.000 1.000 1.000 1.000 1.000 1.000 1.000 0.000
 1.000 1.000 1.000 1.000 1.000 1.000 1.000 1.000 0.027 0.000
 1.000 1.000 1.000 1.000 1.000 1.000 1.000 1.000 1.000 0.000
 1.000 1.000 1.000 1.000 1.000 1.000 1.000 1.000 1.000 0.000
 1.000 1.000 1.000 1.000 1.000 1.000 1.000 1.000 1.000 0.000
 1.000 1.000 1.000 1.000 1.000 1.000 1.000 1.000 1.000 0.000
mkrho: echo density (plane-wave part only)
 Total charge density [el/Bohr^3]
,     Maximum=    1.6655E+00  at reduced coord.    0.8667    0.9667    0.9667
,     Minimum=    2.9711E-03  at reduced coord.    0.0000    0.0000    0.0000
,  Integrated=    1.6000E+01
 Spin up density      [el/Bohr^3]
,     Maximum=    8.4296E-01  at reduced coord.    0.8667    0.9667    0.9667
,     Minimum=    1.5056E-03  at reduced coord.    0.0000    0.0000    0.0000
,  Integrated=    8.0539E+00
 Spin down density    [el/Bohr^3]
,     Maximum=    8.2280E-01  at reduced coord.    0.1000    0.9667    0.9667
,     Minimum=    1.4655E-03  at reduced coord.    0.0000    0.0000    0.0000
,  Integrated=    7.9461E+00
 Magnetization (spin up - spin down) [el/Bohr^3]
,     Maximum=    2.2618E-02  at reduced coord.    0.0000    0.9000    0.9000
,     Minimum=   -5.4133E-04  at reduced coord.    0.7333    0.5000    0.2333
,  Integrated=    1.0772E-01
 Relative magnetization (=zeta, between -1 and 1)
,     Maximum=    1.4546E-02  at reduced coord.    0.0000    0.9333    0.9333
,     Minimum=   -4.8600E-03  at reduced coord.    0.7333    0.5000    0.2333

 vtorho : WARNING -
  For k-point number    1, and
  for spin polarization  1, the minimal occupation factor is  1.000.
  An adequate monitoring of convergence requires it to be at most 0.01_dp.
  Action : increase slightly the number of bands.


 vtorho : WARNING -
  For k-point number   26, and
  for spin polarization  2, the minimal occupation factor is  0.985.
  An adequate monitoring of convergence requires it to be at most 0.01_dp.
  Action : increase slightly the number of bands.

 Total charge density [el/Bohr^3]
,     Maximum=    1.6655E+00  at reduced coord.    0.8667    0.9667    0.9667
,     Minimum=    2.9711E-03  at reduced coord.    0.0000    0.0000    0.0000
,  Integrated=    1.6000E+01
 Spin up density      [el/Bohr^3]
,     Maximum=    8.4296E-01  at reduced coord.    0.8667    0.9667    0.9667
,     Minimum=    1.5056E-03  at reduced coord.    0.0000    0.0000    0.0000
,  Integrated=    8.0539E+00
 Spin down density    [el/Bohr^3]
,     Maximum=    8.2280E-01  at reduced coord.    0.1000    0.9667    0.9667
,     Minimum=    1.4655E-03  at reduced coord.    0.0000    0.0000    0.0000
,  Integrated=    7.9461E+00
 Magnetization (spin up - spin down) [el/Bohr^3]
,     Maximum=    2.2618E-02  at reduced coord.    0.0000    0.9000    0.9000
,     Minimum=   -5.4133E-04  at reduced coord.    0.7333    0.5000    0.2333
,  Integrated=    1.0772E-01
 Relative magnetization (=zeta, between -1 and 1)
,     Maximum=    1.4546E-02  at reduced coord.    0.0000    0.9333    0.9333
,     Minimum=   -4.8600E-03  at reduced coord.    0.7333    0.5000    0.2333
 ETOT  2  -112.43893852586    -1.37E+00 2.72E-01 7.68E+04 0.108
 scprqt: <Vxc>= -6.0056828E-01 hartree

 Pulay update with  1 previous iterations:
 mixing of old trial potential : alpha(m:m-4)=  0.515      0.485

 ITER STEP NUMBER     3
 vtorho : nnsclo_now=  1, note that nnsclo,dbl_nnsclo,istep=  0 0  3
  ****  In vtorho for isppol=           1
  ****  In vtorho for isppol=           2
 newocc : new Fermi energy is       0.321582 , with nelect=     16.000000
  Number of bissection calls =  51
 newocc : computed new occupation numbers for occopt=    7
  (1) spin up   values
 1.000 1.000 1.000 1.000 1.000 1.000 1.000 1.000 1.000 1.000
 1.000 1.000 1.000 1.000 1.000 1.000 1.000 1.000 1.000 1.000
 1.000 1.000 1.000 1.000 1.000 1.000 1.000 1.000 1.000 0.000
 1.000 1.000 1.000 1.000 1.000 1.000 1.000 0.954 0.000 0.000
 1.000 1.000 1.000 1.000 1.000 1.000 1.000 1.000 1.000 1.000
 1.000 1.000 1.000 1.000 1.000 1.000 1.000 1.000 1.000 0.000
 1.000 1.000 1.000 1.000 1.000 1.000 1.000 1.000 0.095 0.000
 1.000 1.000 1.000 1.000 1.000 1.000 1.000 1.000 1.000 1.000
 1.000 1.000 1.000 1.000 1.000 1.000 1.000 1.000 1.000 0.000
 1.000 1.000 1.000 1.000 1.000 1.000 1.000 1.000 1.000 1.000
 1.000 1.000 1.000 1.000 1.000 1.000 1.000 1.000 1.000 1.000
 1.000 1.000 1.000 1.000 1.000 1.000 1.000 0.663 0.000 0.000
 1.000 1.000 1.000 1.000 1.000 1.000 1.000 1.000 0.000 0.000
 1.000 1.000 1.000 1.000 1.000 1.000 1.000 0.994 0.017 0.000
 1.000 1.000 1.000 1.000 1.000 1.000 1.000 0.831 0.000 0.000
 1.000 1.000 1.000 1.000 1.000 1.000 1.000 1.000 1.000 0.000
 1.000 1.000 1.000 1.000 1.000 1.000 1.000 1.000 1.000 0.000
 1.000 1.000 1.000 1.000 1.000 1.000 1.000 1.000 1.000 1.000
 1.000 1.000 1.000 1.000 1.000 1.000 1.000 1.000 1.000 0.000
 1.000 1.000 1.000 1.000 1.000 1.000 1.000 0.163 0.000 0.000
 1.000 1.000 1.000 1.000 1.000 1.000 1.000 0.788 0.000 0.000
 1.000 1.000 1.000 1.000 1.000 1.000 1.000 0.000 0.000 0.000
 1.000 1.000 1.000 1.000 1.000 1.000 1.000 1.000 1.000 0.000
 1.000 1.000 1.000 1.000 1.000 1.000 1.000 0.000 0.000 0.000
 1.000 1.000 1.000 1.000 1.000 1.000 1.000 0.502 0.000 0.000
 1.000 1.000 1.000 1.000 1.000 1.000 0.303 0.000 0.000 0.000
  (2) spin down values
 1.000 1.000 1.000 1.000 1.000 1.000 1.000 1.000 1.000 1.000
 1.000 1.000 1.000 1.000 1.000 1.000 1.000 1.000 0.437 0.339
 1.000 1.000 1.000 1.000 1.000 1.000 1.000 0.014 0.000 0.000
 1.000 1.000 1.000 1.000 1.000 1.000 0.239 0.000 0.000 0.000
 1.000 1.000 1.000 1.000 1.000 1.000 1.000 1.000 1.000 0.996
 1.000 1.000 1.000 1.000 1.000 1.000 1.000 1.000 0.192 0.000
 1.000 1.000 1.000 1.000 1.000 1.000 1.000 0.654 0.000 0.000
 1.000 1.000 1.000 1.000 1.000 1.000 1.000 1.000 1.000 0.645
 1.000 1.000 1.000 1.000 1.000 1.000 1.000 0.047 0.000 0.000
 1.000 1.000 1.000 1.000 1.000 1.000 1.000 0.387 0.040 0.001
 1.000 1.000 1.000 1.000 1.000 1.000 1.000 1.000 0.299 0.000
 1.000 1.000 1.000 1.000 1.000 1.000 0.003 0.000 0.000 0.000
 1.000 1.000 1.000 1.000 1.000 1.000 1.000 0.431 0.000 0.000
 1.000 1.000 1.000 1.000 1.000 1.000 1.000 0.000 0.000 0.000
 1.000 1.000 1.000 1.000 1.000 1.000 1.000 0.000 0.000 0.000
 1.000 1.000 1.000 1.000 1.000 1.000 1.000 0.097 0.004 0.000
 1.000 1.000 1.000 1.000 1.000 1.000 1.000 0.073 0.016 0.000
 1.000 1.000 1.000 1.000 1.000 1.000 1.000 1.000 1.000 0.011
 1.000 1.000 1.000 1.000 1.000 1.000 1.000 0.984 0.000 0.000
 1.000 1.000 1.000 1.000 1.000 1.000 1.000 0.000 0.000 0.000
 1.000 1.000 1.000 1.000 1.000 1.000 1.000 0.000 0.000 0.000
 1.000 1.000 1.000 1.000 1.000 1.000 1.000 0.000 0.000 0.000
 1.000 1.000 1.000 1.000 1.000 1.000 1.000 1.000 0.997 0.000
 1.000 1.000 1.000 1.000 1.000 1.000 0.804 0.000 0.000 0.000
 1.000 1.000 1.000 1.000 1.000 1.000 0.061 0.000 0.000 0.000
 1.000 1.000 1.000 1.000 1.000 1.000 0.000 0.000 0.000 0.000
mkrho: echo density (plane-wave part only)
 Total charge density [el/Bohr^3]
,     Maximum=    3.8472E+00  at reduced coord.    0.0000    0.9000    0.9000
,     Minimum=    1.5837E-02  at reduced coord.    0.0000    0.0000    0.0000
,  Integrated=    1.6000E+01
 Spin up density      [el/Bohr^3]
,     Maximum=    2.1086E+00  at reduced coord.    0.0000    0.9000    0.9000
,     Minimum=    7.9985E-03  at reduced coord.    0.0000    0.0000    0.0000
,  Integrated=    8.4742E+00
 Spin down density    [el/Bohr^3]
,     Maximum=    1.7385E+00  at reduced coord.    0.0000    0.9000    0.9000
,     Minimum=    7.8388E-03  at reduced coord.    0.0000    0.0000    0.0000
,  Integrated=    7.5258E+00
 Magnetization (spin up - spin down) [el/Bohr^3]
,     Maximum=    3.7011E-01  at reduced coord.    0.0000    0.9000    0.9000
,     Minimum=   -8.6780E-04  at reduced coord.    0.5000    0.5000    0.0000
,  Integrated=    9.4844E-01
 Relative magnetization (=zeta, between -1 and 1)
,     Maximum=    1.1778E-01  at reduced coord.    0.0000    0.7667    0.7667
,     Minimum=   -2.7112E-02  at reduced coord.    0.5000    0.5000    0.0000

 vtorho : WARNING -
  For k-point number    1, and
  for spin polarization  1, the minimal occupation factor is  1.000.
  An adequate monitoring of convergence requires it to be at most 0.01_dp.
  Action : increase slightly the number of bands.


 vtorho : WARNING -
  For k-point number    1, and
  for spin polarization  2, the minimal occupation factor is  1.000.
  An adequate monitoring of convergence requires it to be at most 0.01_dp.
  Action : increase slightly the number of bands.

 Total charge density [el/Bohr^3]
,     Maximum=    3.8472E+00  at reduced coord.    0.0000    0.9000    0.9000
,     Minimum=    1.5837E-02  at reduced coord.    0.0000    0.0000    0.0000
,  Integrated=    1.6000E+01
 Spin up density      [el/Bohr^3]
,     Maximum=    2.1086E+00  at reduced coord.    0.0000    0.9000    0.9000
,     Minimum=    7.9985E-03  at reduced coord.    0.0000    0.0000    0.0000
,  Integrated=    8.4742E+00
 Spin down density    [el/Bohr^3]
,     Maximum=    1.7385E+00  at reduced coord.    0.0000    0.9000    0.9000
,     Minimum=    7.8388E-03  at reduced coord.    0.0000    0.0000    0.0000
,  Integrated=    7.5258E+00
 Magnetization (spin up - spin down) [el/Bohr^3]
,     Maximum=    3.7011E-01  at reduced coord.    0.0000    0.9000    0.9000
,     Minimum=   -8.6780E-04  at reduced coord.    0.5000    0.5000    0.0000
,  Integrated=    9.4844E-01
 Relative magnetization (=zeta, between -1 and 1)
,     Maximum=    1.1778E-01  at reduced coord.    0.0000    0.7667    0.7667
,     Minimum=   -2.7112E-02  at reduced coord.    0.5000    0.5000    0.0000
 ETOT  3  -122.44494185751    -1.00E+01 7.31E-01 5.55E+02 0.948
 scprqt: <Vxc>= -5.0681515E-01 hartree

 Pulay update with  2 previous iterations:
 mixing of old trial potential : alpha(m:m-4)=  0.333      0.352      0.315

 ITER STEP NUMBER     4
 vtorho : nnsclo_now=  1, note that nnsclo,dbl_nnsclo,istep=  0 0  4
  ****  In vtorho for isppol=           1
  ****  In vtorho for isppol=           2
 newocc : new Fermi energy is       0.408594 , with nelect=     16.000000
  Number of bissection calls =  50
 newocc : computed new occupation numbers for occopt=    7
  (1) spin up   values
 1.000 1.000 1.000 1.000 1.000 1.000 1.000 1.000 1.000 1.000
 1.000 1.000 1.000 1.000 1.000 1.000 1.000 1.000 1.000 1.000
 1.000 1.000 1.000 1.000 1.000 1.000 1.000 1.000 0.979 0.000
 1.000 1.000 1.000 1.000 1.000 1.000 1.000 0.995 0.906 0.000
 1.000 1.000 1.000 1.000 1.000 1.000 1.000 1.000 1.000 1.000
 1.000 1.000 1.000 1.000 1.000 1.000 1.000 1.000 0.994 0.000
 1.000 1.000 1.000 1.000 1.000 1.000 1.000 1.000 0.668 0.000
 1.000 1.000 1.000 1.000 1.000 1.000 1.000 1.000 1.000 0.999
 1.000 1.000 1.000 1.000 1.000 1.000 1.000 0.987 0.986 0.000
 1.000 1.000 1.000 1.000 1.000 1.000 1.000 1.000 0.986 0.832
 1.000 1.000 1.000 1.000 1.000 1.000 1.000 1.000 1.000 0.245
 1.000 1.000 1.000 1.000 1.000 1.000 1.000 1.000 0.000 0.000
 1.000 1.000 1.000 1.000 1.000 1.000 1.000 1.000 0.237 0.000
 1.000 1.000 1.000 1.000 1.000 1.000 1.000 1.000 0.000 0.000
 1.000 1.000 1.000 1.000 1.000 1.000 1.000 1.000 0.055 0.000
 1.000 1.000 1.000 1.000 1.000 1.000 1.000 0.970 0.970 0.000
 1.000 1.000 1.000 1.000 1.000 1.000 1.000 0.960 0.929 0.000
 1.000 1.000 1.000 1.000 1.000 1.000 1.000 1.000 1.000 0.667
 1.000 1.000 1.000 1.000 1.000 1.000 1.000 1.000 0.999 0.000
 1.000 1.000 1.000 1.000 1.000 1.000 1.000 1.000 0.000 0.000
 1.000 1.000 1.000 1.000 1.000 1.000 1.000 1.000 0.011 0.000
 1.000 1.000 1.000 1.000 1.000 1.000 1.000 1.000 0.000 0.000
 1.000 1.000 1.000 1.000 1.000 1.000 1.000 1.000 1.000 0.000
 1.000 1.000 1.000 1.000 1.000 1.000 1.000 1.000 0.000 0.000
 1.000 1.000 1.000 1.000 1.000 1.000 1.000 0.000 0.000 0.000
 1.000 1.000 1.000 1.000 1.000 1.000 0.000 0.000 0.000 0.000
  (2) spin down values
 1.000 1.000 1.000 1.000 1.000 1.000 1.000 1.000 0.000 0.000
 1.000 1.000 1.000 1.000 1.000 1.000 1.000 0.033 0.000 0.000
 1.000 1.000 1.000 1.000 1.000 1.000 1.000 0.000 0.000 0.000
 1.000 1.000 1.000 1.000 1.000 1.000 0.000 0.000 0.000 0.000
 1.000 1.000 1.000 1.000 1.000 1.000 1.000 1.000 0.064 0.000
 1.000 1.000 1.000 1.000 1.000 1.000 1.000 0.001 0.000 0.000
 1.000 1.000 1.000 1.000 1.000 1.000 1.000 0.000 0.000 0.000
 1.000 1.000 1.000 1.000 1.000 1.000 1.000 1.000 0.841 0.000
 1.000 1.000 1.000 1.000 1.000 1.000 1.000 0.000 0.000 0.000
 1.000 1.000 1.000 1.000 1.000 1.000 1.000 0.089 0.000 0.000
 1.000 1.000 1.000 1.000 1.000 1.000 1.000 0.999 0.000 0.000
 1.000 1.000 1.000 1.000 1.000 1.000 0.979 0.000 0.000 0.000
 1.000 1.000 1.000 1.000 1.000 1.000 1.000 0.515 0.000 0.000
 1.000 1.000 1.000 1.000 1.000 1.000 1.000 0.008 0.000 0.000
 1.000 1.000 1.000 1.000 1.000 1.000 1.000 0.000 0.000 0.000
 1.000 1.000 1.000 1.000 1.000 1.000 1.000 0.000 0.000 0.000
 1.000 1.000 1.000 1.000 1.000 1.000 1.000 0.000 0.000 0.000
 1.000 1.000 1.000 1.000 1.000 1.000 1.000 1.000 1.000 0.000
 1.000 1.000 1.000 1.000 1.000 1.000 1.000 1.000 0.000 0.000
 1.000 1.000 1.000 1.000 1.000 1.000 1.000 0.808 0.000 0.000
 1.000 1.000 1.000 1.000 1.000 1.000 1.000 0.697 0.000 0.000
 1.000 1.000 1.000 1.000 1.000 1.000 1.000 0.000 0.000 0.000
 1.000 1.000 1.000 1.000 1.000 1.000 0.999 0.999 0.000 0.000
 1.000 1.000 1.000 1.000 1.000 1.000 0.957 0.002 0.000 0.000
 1.000 1.000 1.000 1.000 1.000 1.000 0.532 0.000 0.000 0.000
 1.000 1.000 1.000 1.000 1.000 1.000 0.000 0.000 0.000 0.000
mkrho: echo density (plane-wave part only)
 Total charge density [el/Bohr^3]
,     Maximum=    3.6924E+00  at reduced coord.    0.8667    0.9667    0.9667
,     Minimum=    1.6118E-02  at reduced coord.    0.0000    0.0000    0.0000
,  Integrated=    1.6000E+01
 Spin up density      [el/Bohr^3]
,     Maximum=    2.0850E+00  at reduced coord.    0.0000    0.9000    0.9000
,     Minimum=    8.0896E-03  at reduced coord.    0.0000    0.0000    0.0000
,  Integrated=    8.6771E+00
 Spin down density    [el/Bohr^3]
,     Maximum=    1.7250E+00  at reduced coord.    0.8667    0.9667    0.9667
,     Minimum=    8.0281E-03  at reduced coord.    0.0000    0.0000    0.0000
,  Integrated=    7.3229E+00
 Magnetization (spin up - spin down) [el/Bohr^3]
,     Maximum=    5.1342E-01  at reduced coord.    0.0000    0.9000    0.9000
,     Minimum=   -7.0274E-04  at reduced coord.    0.7333    0.4667    0.2333
,  Integrated=    1.3541E+00
 Relative magnetization (=zeta, between -1 and 1)
,     Maximum=    1.9723E-01  at reduced coord.    0.0000    0.7333    0.7333
,     Minimum=   -2.3241E-02  at reduced coord.    0.7333    0.4667    0.2333

 vtorho : WARNING -
  For k-point number    1, and
  for spin polarization  1, the minimal occupation factor is  1.000.
  An adequate monitoring of convergence requires it to be at most 0.01_dp.
  Action : increase slightly the number of bands.


 vtorho : WARNING -
  For k-point number    1, and
  for spin polarization  2, the minimal occupation factor is  1.000.
  An adequate monitoring of convergence requires it to be at most 0.01_dp.
  Action : increase slightly the number of bands.

 Total charge density [el/Bohr^3]
,     Maximum=    3.6924E+00  at reduced coord.    0.8667    0.9667    0.9667
,     Minimum=    1.6118E-02  at reduced coord.    0.0000    0.0000    0.0000
,  Integrated=    1.6000E+01
 Spin up density      [el/Bohr^3]
,     Maximum=    2.0850E+00  at reduced coord.    0.0000    0.9000    0.9000
,     Minimum=    8.0896E-03  at reduced coord.    0.0000    0.0000    0.0000
,  Integrated=    8.6771E+00
 Spin down density    [el/Bohr^3]
,     Maximum=    1.7250E+00  at reduced coord.    0.8667    0.9667    0.9667
,     Minimum=    8.0281E-03  at reduced coord.    0.0000    0.0000    0.0000
,  Integrated=    7.3229E+00
 Magnetization (spin up - spin down) [el/Bohr^3]
,     Maximum=    5.1342E-01  at reduced coord.    0.0000    0.9000    0.9000
,     Minimum=   -7.0274E-04  at reduced coord.    0.7333    0.4667    0.2333
,  Integrated=    1.3541E+00
 Relative magnetization (=zeta, between -1 and 1)
,     Maximum=    1.9723E-01  at reduced coord.    0.0000    0.7333    0.7333
,     Minimum=   -2.3241E-02  at reduced coord.    0.7333    0.4667    0.2333
 ETOT  4  -122.63330125986    -1.88E-01 1.96E-01 4.45E+02 1.354
 scprqt: <Vxc>= -5.0454896E-01 hartree

 Pulay update with  3 previous iterations:
 mixing of old trial potential : alpha(m:m-4)=   1.92      -1.29      0.209      0.161

 ITER STEP NUMBER     5
 vtorho : nnsclo_now=  1, note that nnsclo,dbl_nnsclo,istep=  0 0  5
  ****  In vtorho for isppol=           1
  ****  In vtorho for isppol=           2
 newocc : new Fermi energy is       0.464375 , with nelect=     16.000000
  Number of bissection calls =  50
 newocc : computed new occupation numbers for occopt=    7
  (1) spin up   values
 1.000 1.000 1.000 1.000 1.000 1.000 1.000 1.000 1.000 1.000
 1.000 1.000 1.000 1.000 1.000 1.000 1.000 1.000 1.000 1.000
 1.000 1.000 1.000 1.000 1.000 1.000 1.000 1.000 1.000 0.000
 1.000 1.000 1.000 1.000 1.000 1.000 1.000 1.000 1.000 0.000
 1.000 1.000 1.000 1.000 1.000 1.000 1.000 1.000 1.000 1.000
 1.000 1.000 1.000 1.000 1.000 1.000 1.000 1.000 1.000 0.000
 1.000 1.000 1.000 1.000 1.000 1.000 1.000 1.000 1.000 0.000
 1.000 1.000 1.000 1.000 1.000 1.000 1.000 1.000 1.000 1.000
 1.000 1.000 1.000 1.000 1.000 1.000 1.000 1.000 1.000 0.000
 1.000 1.000 1.000 1.000 1.000 1.000 1.000 1.000 1.000 0.999
 1.000 1.000 1.000 1.000 1.000 1.000 1.000 1.000 1.000 1.000
 1.000 1.000 1.000 1.000 1.000 1.000 1.000 1.000 0.137 0.000
 1.000 1.000 1.000 1.000 1.000 1.000 1.000 1.000 0.996 0.000
 1.000 1.000 1.000 1.000 1.000 1.000 1.000 1.000 0.017 0.000
 1.000 1.000 1.000 1.000 1.000 1.000 1.000 1.000 0.982 0.000
 1.000 1.000 1.000 1.000 1.000 1.000 1.000 1.000 1.000 0.000
 1.000 1.000 1.000 1.000 1.000 1.000 1.000 1.000 1.000 0.000
 1.000 1.000 1.000 1.000 1.000 1.000 1.000 1.000 1.000 1.000
 1.000 1.000 1.000 1.000 1.000 1.000 1.000 1.000 1.000 0.048
 1.000 1.000 1.000 1.000 1.000 1.000 1.000 1.000 0.000 0.000
 1.000 1.000 1.000 1.000 1.000 1.000 1.000 1.000 0.188 0.000
 1.000 1.000 1.000 1.000 1.000 1.000 1.000 1.000 0.000 0.000
 1.000 1.000 1.000 1.000 1.000 1.000 1.000 1.000 1.000 0.000
 1.000 1.000 1.000 1.000 1.000 1.000 1.000 1.000 0.000 0.000
 1.000 1.000 1.000 1.000 1.000 1.000 1.000 0.000 0.000 0.000
 1.000 1.000 1.000 1.000 1.000 1.000 0.000 0.000 0.000 0.000
  (2) spin down values
 1.000 1.000 1.000 1.000 1.000 1.000 1.000 1.000 0.000 0.000
 1.000 1.000 1.000 1.000 1.000 1.000 1.000 0.000 0.000 0.000
 1.000 1.000 1.000 1.000 1.000 1.000 1.000 0.000 0.000 0.000
 1.000 1.000 1.000 1.000 1.000 1.000 1.000 0.000 0.000 0.000
 1.000 1.000 1.000 1.000 1.000 1.000 1.000 1.000 0.000 0.000
 1.000 1.000 1.000 1.000 1.000 1.000 1.000 0.000 0.000 0.000
 1.000 1.000 1.000 1.000 1.000 1.000 1.000 0.000 0.000 0.000
 1.000 1.000 1.000 1.000 1.000 1.000 1.000 0.998 0.001 0.000
 1.000 1.000 1.000 1.000 1.000 1.000 1.000 0.000 0.000 0.000
 1.000 1.000 1.000 1.000 1.000 1.000 1.000 0.000 0.000 0.000
 1.000 1.000 1.000 1.000 1.000 1.000 1.000 0.345 0.000 0.000
 1.000 1.000 1.000 1.000 1.000 1.000 1.000 0.000 0.000 0.000
 1.000 1.000 1.000 1.000 1.000 1.000 1.000 0.000 0.000 0.000
 1.000 1.000 1.000 1.000 1.000 1.000 1.000 0.000 0.000 0.000
 1.000 1.000 1.000 1.000 1.000 1.000 1.000 0.000 0.000 0.000
 1.000 1.000 1.000 1.000 1.000 1.000 1.000 0.000 0.000 0.000
 1.000 1.000 1.000 1.000 1.000 1.000 1.000 0.000 0.000 0.000
 1.000 1.000 1.000 1.000 1.000 1.000 1.000 1.000 0.995 0.000
 1.000 1.000 1.000 1.000 1.000 1.000 1.000 0.992 0.000 0.000
 1.000 1.000 1.000 1.000 1.000 1.000 1.000 0.126 0.000 0.000
 1.000 1.000 1.000 1.000 1.000 1.000 1.000 0.007 0.000 0.000
 1.000 1.000 1.000 1.000 1.000 1.000 1.000 0.000 0.000 0.000
 1.000 1.000 1.000 1.000 1.000 1.000 0.739 0.739 0.000 0.000
 1.000 1.000 1.000 1.000 1.000 1.000 0.129 0.000 0.000 0.000
 1.000 1.000 1.000 1.000 1.000 1.000 0.009 0.000 0.000 0.000
 1.000 1.000 1.000 1.000 1.000 1.000 0.000 0.000 0.000 0.000
mkrho: echo density (plane-wave part only)
 Total charge density [el/Bohr^3]
,     Maximum=    3.5981E+00  at reduced coord.    0.8667    0.9333    0.9333
,     Minimum=    1.7000E-02  at reduced coord.    0.0000    0.0000    0.0000
,  Integrated=    1.6000E+01
 Spin up density      [el/Bohr^3]
,     Maximum=    2.1276E+00  at reduced coord.    0.0000    0.9000    0.9000
,     Minimum=    8.5266E-03  at reduced coord.    0.0000    0.0000    0.0000
,  Integrated=    8.8960E+00
 Spin down density    [el/Bohr^3]
,     Maximum=    1.6378E+00  at reduced coord.    0.8667    0.9667    0.9667
,     Minimum=    8.4731E-03  at reduced coord.    0.0000    0.0000    0.0000
,  Integrated=    7.1040E+00
 Magnetization (spin up - spin down) [el/Bohr^3]
,     Maximum=    6.8093E-01  at reduced coord.    0.0000    0.9000    0.9000
,     Minimum=   -1.3795E-03  at reduced coord.    0.7333    0.4667    0.2333
,  Integrated=    1.7920E+00
 Relative magnetization (=zeta, between -1 and 1)
,     Maximum=    2.7270E-01  at reduced coord.    0.0000    0.7333    0.7333
,     Minimum=   -3.7029E-02  at reduced coord.    0.7333    0.4667    0.2333

 vtorho : WARNING -
  For k-point number    1, and
  for spin polarization  1, the minimal occupation factor is  1.000.
  An adequate monitoring of convergence requires it to be at most 0.01_dp.
  Action : increase slightly the number of bands.


 vtorho : WARNING -
  For k-point number    1, and
  for spin polarization  2, the minimal occupation factor is  1.000.
  An adequate monitoring of convergence requires it to be at most 0.01_dp.
  Action : increase slightly the number of bands.

 Total charge density [el/Bohr^3]
,     Maximum=    3.5981E+00  at reduced coord.    0.8667    0.9333    0.9333
,     Minimum=    1.7000E-02  at reduced coord.    0.0000    0.0000    0.0000
,  Integrated=    1.6000E+01
 Spin up density      [el/Bohr^3]
,     Maximum=    2.1276E+00  at reduced coord.    0.0000    0.9000    0.9000
,     Minimum=    8.5266E-03  at reduced coord.    0.0000    0.0000    0.0000
,  Integrated=    8.8960E+00
 Spin down density    [el/Bohr^3]
,     Maximum=    1.6378E+00  at reduced coord.    0.8667    0.9667    0.9667
,     Minimum=    8.4731E-03  at reduced coord.    0.0000    0.0000    0.0000
,  Integrated=    7.1040E+00
 Magnetization (spin up - spin down) [el/Bohr^3]
,     Maximum=    6.8093E-01  at reduced coord.    0.0000    0.9000    0.9000
,     Minimum=   -1.3795E-03  at reduced coord.    0.7333    0.4667    0.2333
,  Integrated=    1.7920E+00
 Relative magnetization (=zeta, between -1 and 1)
,     Maximum=    2.7270E-01  at reduced coord.    0.0000    0.7333    0.7333
,     Minimum=   -3.7029E-02  at reduced coord.    0.7333    0.4667    0.2333
 ETOT  5  -122.68103675652    -4.77E-02 4.85E-02 1.77E+01 1.792
 scprqt: <Vxc>= -5.1545394E-01 hartree

 Pulay update with  4 previous iterations:
 mixing of old trial potential : alpha(m:m-4)=  0.769      0.743     -0.670      0.813E-01  0.763E-01

 ITER STEP NUMBER     6
 vtorho : nnsclo_now=  1, note that nnsclo,dbl_nnsclo,istep=  0 0  6
  ****  In vtorho for isppol=           1
  ****  In vtorho for isppol=           2
 newocc : new Fermi energy is       0.447443 , with nelect=     16.000000
  Number of bissection calls =  50
 newocc : computed new occupation numbers for occopt=    7
  (1) spin up   values
 1.000 1.000 1.000 1.000 1.000 1.000 1.000 1.000 1.000 1.000
 1.000 1.000 1.000 1.000 1.000 1.000 1.000 1.000 1.000 1.000
 1.000 1.000 1.000 1.000 1.000 1.000 1.000 1.000 1.000 0.000
 1.000 1.000 1.000 1.000 1.000 1.000 1.000 1.000 1.000 0.000
 1.000 1.000 1.000 1.000 1.000 1.000 1.000 1.000 1.000 1.000
 1.000 1.000 1.000 1.000 1.000 1.000 1.000 1.000 1.000 0.000
 1.000 1.000 1.000 1.000 1.000 1.000 1.000 1.000 1.000 0.000
 1.000 1.000 1.000 1.000 1.000 1.000 1.000 1.000 1.000 1.000
 1.000 1.000 1.000 1.000 1.000 1.000 1.000 1.000 1.000 0.000
 1.000 1.000 1.000 1.000 1.000 1.000 1.000 1.000 1.000 1.000
 1.000 1.000 1.000 1.000 1.000 1.000 1.000 1.000 1.000 1.000
 1.000 1.000 1.000 1.000 1.000 1.000 1.000 1.000 0.334 0.000
 1.000 1.000 1.000 1.000 1.000 1.000 1.000 1.000 1.000 0.000
 1.000 1.000 1.000 1.000 1.000 1.000 1.000 1.000 0.223 0.000
 1.000 1.000 1.000 1.000 1.000 1.000 1.000 1.000 1.000 0.000
 1.000 1.000 1.000 1.000 1.000 1.000 1.000 1.000 1.000 0.000
 1.000 1.000 1.000 1.000 1.000 1.000 1.000 1.000 1.000 0.000
 1.000 1.000 1.000 1.000 1.000 1.000 1.000 1.000 1.000 1.000
 1.000 1.000 1.000 1.000 1.000 1.000 1.000 1.000 1.000 0.258
 1.000 1.000 1.000 1.000 1.000 1.000 1.000 1.000 0.000 0.000
 1.000 1.000 1.000 1.000 1.000 1.000 1.000 1.000 0.697 0.000
 1.000 1.000 1.000 1.000 1.000 1.000 1.000 1.000 0.003 0.000
 1.000 1.000 1.000 1.000 1.000 1.000 1.000 1.000 1.000 0.000
[...]
   5      1.0000  1.0000  1.0000  1.0000  1.0000  1.0000  1.0000  1.0000  0.0000
          0.0000  0.0000  0.0000  0.0000

 k-point   6   SPIN DOWN:
 Eigenvalues in eV for ikpt=   6   SPIN DOWN:
   6      -76.84  -42.99  -42.96  -42.96    9.03    9.54   13.38   13.38   14.33
           17.07   23.59   23.59   29.40
 Writing out eigenvalues/vectors for ikpt=  6   SPIN DOWN:
 Occupation numbers for ikpt=  6   SPIN DOWN:
   6      1.0000  1.0000  1.0000  1.0000  1.0000  1.0000  1.0000  1.0000  0.0000
          0.0000  0.0000  0.0000  0.0000
 Test on the normalization of the wavefunctions
  min sum_G |a(n,k,G)| =  1.000000
  max sum_G |a(n,k,G)| =  1.000000
 Test on the orthogonalization of the wavefunctions
  min sum_G a(n,k,G)a(n',k,G) =  0.000000
  max sum_G a(n,k,G)a(n',k,G) =  0.000000

================================================================================

 ----iterations are completed or convergence reached----


 outwf: write wavefunction to file Fe_e50_k4_noSO.o_DS2_WFK, with accesswff -1
 leave_test : synchronization done...
 outwf with iomode: -1, cpu:     0.01, wall:     0.01

 === Gap info ===
  >>>> For spin  1
   Minimum optical gap =  49.4389 [eV], located at k-point      :  -0.1250  0.1250  0.1250
   Fundamental gap     =  49.4389 [eV], Top of valence bands at :  -0.1250  0.1250  0.1250
                                        Bottom of conduction at :  -0.1250  0.1250  0.1250
  >>>> For spin  2
   Minimum optical gap =  47.2589 [eV], located at k-point      :  -0.1250  0.1250  0.1250
   Fundamental gap     =  47.2589 [eV], Top of valence bands at :  -0.1250  0.1250  0.1250
                                        Bottom of conduction at :  -0.1250  0.1250  0.1250

== END DATASET(S) ==============================================================
================================================================================
  
 -outvars: echo values of variables after computation  --------
            acell      5.4200000000E+00  5.4200000000E+00  5.4200000000E+00 Bohr
              amu      5.58470000E+01
             ecut      5.00000000E+01 Hartree
           enunit           1
           etotal1    -1.2268610208E+02
            fcart1    -0.0000000000E+00 -0.0000000000E+00 -0.0000000000E+00
           getden1          0
           getden2          1
             iscf1          7
             iscf2         -2
           jdtset        1    2
              kpt1     6.25000000E-02  6.25000000E-02  6.25000000E-02
                       1.87500000E-01  6.25000000E-02  6.25000000E-02
                       3.12500000E-01  6.25000000E-02  6.25000000E-02
                       4.37500000E-01  6.25000000E-02  6.25000000E-02
                      -6.25000000E-02  6.25000000E-02  6.25000000E-02
                       1.87500000E-01  1.87500000E-01  6.25000000E-02
                       3.12500000E-01  1.87500000E-01  6.25000000E-02
                      -1.87500000E-01  1.87500000E-01  6.25000000E-02
                       3.12500000E-01  3.12500000E-01  6.25000000E-02
                      -3.12500000E-01  3.12500000E-01  6.25000000E-02
                      -1.87500000E-01  3.12500000E-01  6.25000000E-02
                      -4.37500000E-01  4.37500000E-01  6.25000000E-02
                      -3.12500000E-01  4.37500000E-01  6.25000000E-02
                      -4.37500000E-01 -4.37500000E-01  6.25000000E-02
                      -3.12500000E-01 -4.37500000E-01  6.25000000E-02
                       1.87500000E-01  1.87500000E-01  1.87500000E-01
                       3.12500000E-01  1.87500000E-01  1.87500000E-01
                      -1.87500000E-01  1.87500000E-01  1.87500000E-01
                      -3.12500000E-01  3.12500000E-01  1.87500000E-01
                      -4.37500000E-01  4.37500000E-01  1.87500000E-01
                      -3.12500000E-01  4.37500000E-01  1.87500000E-01
                      -4.37500000E-01 -4.37500000E-01  1.87500000E-01
                      -3.12500000E-01  3.12500000E-01  3.12500000E-01
                      -4.37500000E-01  4.37500000E-01  3.12500000E-01
                      -4.37500000E-01 -4.37500000E-01  3.12500000E-01
                      -4.37500000E-01  4.37500000E-01  4.37500000E-01
              kpt2     1.25000000E-01  1.25000000E-01  1.25000000E-01
                       3.75000000E-01  1.25000000E-01  1.25000000E-01
                      -1.25000000E-01  1.25000000E-01  1.25000000E-01
                      -3.75000000E-01  3.75000000E-01  1.25000000E-01
                      -3.75000000E-01 -3.75000000E-01  1.25000000E-01
                      -3.75000000E-01  3.75000000E-01  3.75000000E-01
           kptopt           4
         kptrlatt1       8    0    0      0    8    0      0    0    8
         kptrlatt2       4    0    0      0    4    0      0    0    4
          kptrlen1     3.75508615E+01
          kptrlen2     1.87754308E+01
          kssform1          1
          kssform2          3
P           mkmem1         26
P           mkmem2          6
            natom           1
            nband1         10
            nband2         15
         nbandkss1          0
         nbandkss2         13
           nbdbuf1          0
           nbdbuf2         10
           ndtset           2
            ngfft          30      30      30
             nkpt1         26
             nkpt2          6
           nspden           2
           nsppol           2
            nstep1        100
            nstep2        300
             nsym          48
           ntypat           1
              occ      1.000000  1.000000  1.000000  1.000000  1.000000  1.000000
                       1.000000  1.000000  1.000000  1.000000
                       1.000000  1.000000  1.000000  1.000000  1.000000  1.000000
                       1.000000  1.000000  1.000000  1.000000
                       1.000000  1.000000  1.000000  1.000000  1.000000  1.000000
                       1.000000  1.000000  1.000000  0.000000
                       1.000000  1.000000  1.000000  1.000000  1.000000  1.000000
                       1.000000  1.000000  1.000000  0.000000
                       1.000000  1.000000  1.000000  1.000000  1.000000  1.000000
                       1.000000  1.000000  1.000000  1.000000
                       1.000000  1.000000  1.000000  1.000000  1.000000  1.000000
                       1.000000  1.000000  1.000000  0.000000
                       1.000000  1.000000  1.000000  1.000000  1.000000  1.000000
                       1.000000  1.000000  1.000000  0.000000
                       1.000000  1.000000  1.000000  1.000000  1.000000  1.000000
                       1.000000  1.000000  1.000000  1.000000
                       1.000000  1.000000  1.000000  1.000000  1.000000  1.000000
                       1.000000  1.000000  1.000000  0.000000
                       1.000000  1.000000  1.000000  1.000000  1.000000  1.000000
                       1.000000  1.000000  1.000000  1.000000
                       1.000000  1.000000  1.000000  1.000000  1.000000  1.000000
                       1.000000  1.000000  1.000000  1.000000
                       1.000000  1.000000  1.000000  1.000000  1.000000  1.000000
                       1.000000  1.000000  0.725232  0.000030
                       1.000000  1.000000  1.000000  1.000000  1.000000  1.000000
                       1.000000  1.000000  1.000000  0.000000
                       1.000000  1.000000  1.000000  1.000000  1.000000  1.000000
                       1.000000  1.000000  0.727788  0.000000
                       1.000000  1.000000  1.000000  1.000000  1.000000  1.000000
                       1.000000  1.000000  0.999999  0.000000
                       1.000000  1.000000  1.000000  1.000000  1.000000  1.000000
                       1.000000  1.000000  1.000000  0.000000
                       1.000000  1.000000  1.000000  1.000000  1.000000  1.000000
                       1.000000  1.000000  1.000000  0.000000
                       1.000000  1.000000  1.000000  1.000000  1.000000  1.000000
                       1.000000  1.000000  1.000000  1.000000
                       1.000000  1.000000  1.000000  1.000000  1.000000  1.000000
                       1.000000  1.000000  1.000000  0.602759
                       1.000000  1.000000  1.000000  1.000000  1.000000  1.000000
                       1.000000  1.000000  0.000011  0.000000
                       1.000000  1.000000  1.000000  1.000000  1.000000  1.000000
                       1.000000  1.000000  0.978258  0.000000
                       1.000000  1.000000  1.000000  1.000000  1.000000  1.000000
                       1.000000  1.000000  0.119151  0.000000
                       1.000000  1.000000  1.000000  1.000000  1.000000  1.000000
                       1.000000  1.000000  1.000000  0.000000
                       1.000000  1.000000  1.000000  1.000000  1.000000  1.000000
                       1.000000  1.000000  0.011802  0.000000
                       1.000000  1.000000  1.000000  1.000000  1.000000  1.000000
                       1.000000  0.193699  0.193699  0.000000
                       1.000000  1.000000  1.000000  1.000000  1.000000  1.000000
                       0.227933  0.227933  0.000112  0.000000
                       1.000000  1.000000  1.000000  1.000000  1.000000  1.000000
                       1.000000  0.540131  0.000000  0.000000
                       1.000000  1.000000  1.000000  1.000000  1.000000  1.000000
                       1.000000  0.000000  0.000000  0.000000
                       1.000000  1.000000  1.000000  1.000000  1.000000  1.000000
                       1.000000  0.000000  0.000000  0.000000
                       1.000000  1.000000  1.000000  1.000000  1.000000  1.000000
                       1.000000  0.000000  0.000000  0.000000
                       1.000000  1.000000  1.000000  1.000000  1.000000  1.000000
                       1.000000  1.000000  0.000000  0.000000
                       1.000000  1.000000  1.000000  1.000000  1.000000  1.000000
                       1.000000  0.000000  0.000000  0.000000
                       1.000000  1.000000  1.000000  1.000000  1.000000  1.000000
                       1.000000  0.000000  0.000000  0.000000
                       1.000000  1.000000  1.000000  1.000000  1.000000  1.000000
                       1.000000  0.219167  0.000000  0.000000
                       1.000000  1.000000  1.000000  1.000000  1.000000  1.000000
                       1.000000  0.000000  0.000000  0.000000
                       1.000000  1.000000  1.000000  1.000000  1.000000  1.000000
                       1.000000  0.000000  0.000000  0.000000
                       1.000000  1.000000  1.000000  1.000000  1.000000  1.000000
                       1.000000  0.000000  0.000000  0.000000
                       1.000000  1.000000  1.000000  1.000000  1.000000  1.000000
                       1.000000  0.000000  0.000000  0.000000
                       1.000000  1.000000  1.000000  1.000000  1.000000  1.000000
                       1.000000  0.000000  0.000000  0.000000
                       1.000000  1.000000  1.000000  1.000000  1.000000  1.000000
                       1.000000  0.000000  0.000000  0.000000
                       1.000000  1.000000  1.000000  1.000000  1.000000  1.000000
                       1.000000  0.000000  0.000000  0.000000
                       1.000000  1.000000  1.000000  1.000000  1.000000  1.000000
                       1.000000  0.000000  0.000000  0.000000
                       1.000000  1.000000  1.000000  1.000000  1.000000  1.000000
                       1.000000  0.000000  0.000000  0.000000
                       1.000000  1.000000  1.000000  1.000000  1.000000  1.000000
                       1.000000  0.998434  0.126415  0.000000
                       1.000000  1.000000  1.000000  1.000000  1.000000  1.000000
                       1.000000  0.076609  0.000000  0.000000
                       1.000000  1.000000  1.000000  1.000000  1.000000  1.000000
                       1.000000  0.000000  0.000000  0.000000
                       1.000000  1.000000  1.000000  1.000000  1.000000  1.000000
                       1.000000  0.000000  0.000000  0.000000
                       1.000000  1.000000  1.000000  1.000000  1.000000  1.000000
                       1.000000  0.000000  0.000000  0.000000
                       1.000000  1.000000  1.000000  1.000000  1.000000  1.000000
                       0.002951  0.002951  0.000000  0.000000
                       1.000000  1.000000  1.000000  1.000000  1.000000  1.000000
                       0.000002  0.000000  0.000000  0.000000
                       1.000000  1.000000  1.000000  1.000000  1.000000  1.000000
                       0.000000  0.000000  0.000000  0.000000
                       1.000000  1.000000  1.000000  1.000000  1.000000  1.000000
                       0.000000  0.000000  0.000000  0.000000
           occopt           7
            rprim     -5.0000000000E-01  5.0000000000E-01  5.0000000000E-01
                       5.0000000000E-01 -5.0000000000E-01  5.0000000000E-01
                       5.0000000000E-01  5.0000000000E-01 -5.0000000000E-01
           shiftk      5.00000000E-01  5.00000000E-01  5.00000000E-01
           so_psp           0
          spgroup         229
           spinat      0.0000000000E+00  0.0000000000E+00  5.0000000000E+00
           strten1     2.6706274605E-02  2.6706274605E-02  2.6706274605E-02
                       0.0000000000E+00  0.0000000000E+00  0.0000000000E+00
        symmorphi1          1
        symmorphi2          0
           symrel      1  0  0   0  1  0   0  0  1      -1  0  0   0 -1  0   0  0 -1
                      -1 -1 -1   0  0  1   0  1  0       1  1  1   0  0 -1   0 -1  0
                       0  1  0   1  0  0  -1 -1 -1       0 -1  0  -1  0  0   1  1  1
                       0  0  1  -1 -1 -1   1  0  0       0  0 -1   1  1  1  -1  0  0
                       0  1  0   1  0  0   0  0  1       0 -1  0  -1  0  0   0  0 -1
                      -1 -1 -1   0  0  1   1  0  0       1  1  1   0  0 -1  -1  0  0
                       1  0  0   0  1  0  -1 -1 -1      -1  0  0   0 -1  0   1  1  1
                       0  0  1  -1 -1 -1   0  1  0       0  0 -1   1  1  1   0 -1  0
                      -1 -1 -1   1  0  0   0  0  1       1  1  1  -1  0  0   0  0 -1
                       0  1  0   0  0  1   1  0  0       0 -1  0   0  0 -1  -1  0  0
                       1  0  0  -1 -1 -1   0  1  0      -1  0  0   1  1  1   0 -1  0
                       0  0  1   0  1  0  -1 -1 -1       0  0 -1   0 -1  0   1  1  1
                       1  0  0  -1 -1 -1   0  0  1      -1  0  0   1  1  1   0  0 -1
                       0  1  0   0  0  1  -1 -1 -1       0 -1  0   0  0 -1   1  1  1
                      -1 -1 -1   1  0  0   0  1  0       1  1  1  -1  0  0   0 -1  0
                       0  0  1   0  1  0   1  0  0       0  0 -1   0 -1  0  -1  0  0
                       0  1  0  -1 -1 -1   0  0  1       0 -1  0   1  1  1   0  0 -1
                       1  0  0   0  0  1  -1 -1 -1      -1  0  0   0  0 -1   1  1  1
                      -1 -1 -1   0  1  0   1  0  0       1  1  1   0 -1  0  -1  0  0
                       0  0  1   1  0  0   0  1  0       0  0 -1  -1  0  0   0 -1  0
                      -1 -1 -1   0  1  0   0  0  1       1  1  1   0 -1  0   0  0 -1
                       1  0  0   0  0  1   0  1  0      -1  0  0   0  0 -1   0 -1  0
                       0  1  0  -1 -1 -1   1  0  0       0 -1  0   1  1  1  -1  0  0
                       0  0  1   1  0  0  -1 -1 -1       0  0 -1  -1  0  0   1  1  1
           toldfe1     1.00000000E-08 Hartree
           toldfe2     0.00000000E+00 Hartree
           tolwfr1     0.00000000E+00
           tolwfr2     1.00000000E-10
           tsmear      5.00000000E-03 Hartree
            typat      1
              wtk1       0.01563    0.04688    0.04688    0.02344    0.01172    0.04688
                         0.09375    0.04688    0.01563    0.04688    0.04688    0.04688
                         0.09375    0.04688    0.04688    0.01563    0.02344    0.01172
                         0.04688    0.04688    0.04688    0.04688    0.01172    0.04688
                         0.01563    0.01172
              wtk2       0.12500    0.18750    0.09375    0.37500    0.12500    0.09375
            znucl       26.00000

================================================================================
  

================================================================================

 Suggested references for the acknowledgment of ABINIT usage.

 The users of ABINIT have little formal obligations with respect to the ABINIT group
 (those specified in the GNU General Public License, http://www.gnu.org/copyleft/gpl.txt).
 However, it is common practice in the scientific literature,
 to acknowledge the efforts of people that have made the research possible.
 In this spirit, please find below suggested citations of work written by ABINIT developers,
 corresponding to implementations inside of ABINIT that you have used in the present run.
 Note also that it will be of great value to readers of publications presenting these results,
 to read papers enabling them to understand the theoretical formalism and details
 of the ABINIT implementation.
 For information on why they are suggested, see also http://www.abinit.org/about/?text=acknowledgments.

 [1] ABINIT : First-principles approach of materials and nanosystem properties.
 X. Gonze, B. Amadon, P.-M. Anglade, J.-M. Beuken, F. Bottin, P. Boulanger, F. Bruneval,
 D. Caliste, R. Caracas, M. Cote, T. Deutsch, L. Genovese, Ph. Ghosez, M. Giantomassi
 S. Goedecker, D.R. Hamann, P. Hermet, F. Jollet, G. Jomard, S. Leroux, M. Mancini, S. Mazevet,
 M.J.T. Oliveira, G. Onida, Y. Pouillon, T. Rangel, G.-M. Rignanese, D. Sangalli, R. Shaltaf,
 M. Torrent, M.J. Verstraete, G. Zerah, J.W. Zwanziger
 Computer Phys. Comm. 180, 2582-2615 (2009).
 Comment : the third generic paper describing the ABINIT project.
 Note that a version of this paper, that is not formatted for Computer Phys. Comm. 
 is available at http://www.abinit.org/about/ABINIT_CPC_v10.pdf .
 The licence allows the authors to put it on the Web.

 [2] A brief introduction to the ABINIT software package.
 X. Gonze, G.-M. Rignanese, M. Verstraete, J.-M. Beuken, Y. Pouillon, R. Caracas, F. Jollet,
 M. Torrent, G. Zerah, M. Mikami, Ph. Ghosez, M. Veithen, J.-Y. Raty, V. Olevano, F. Bruneval,
 L. Reining, R. Godby, G. Onida, D.R. Hamann, and D.C. Allan.
 Z. Kristallogr. 220, 558-562 (2005).
 Comment : the second generic paper describing the ABINIT project. Note that this paper
 should be cited especially if you are using the GW part of ABINIT, as several authors
 of this part are not in the list of authors of the first or third paper.
 The .pdf of the latter paper is available at http://www.abinit.org/about/zfk_0505-06_558-562.pdf.
 Note that it should not redistributed (Copyright by Oldenburg Wissenshaftverlag,
 the licence allows the authors to put it on the Web).


 And optionally :

 [3] First-principles computation of material properties : the ABINIT software project. 
 X. Gonze, J.-M. Beuken, R. Caracas, F. Detraux, M. Fuchs, G.-M. Rignanese, L. Sindic,
 M. Verstraete, G. Zerah, F. Jollet, M. Torrent, A. Roy, M. Mikami, Ph. Ghosez, J.-Y. Raty, D.C. Allan.
 Computational Materials Science 25, 478-492 (2002). http://dx.doi.org/10.1016/S0927-0256(02)00325-7
 Comment : the original paper describing the ABINIT project.

 [4] Fast radix 2, 3, 4 and 5 kernels for Fast Fourier Transformations
 on computers with overlapping multiply-add instructions.
 S. Goedecker, SIAM J. on Scientific Computing 18, 1605 (1997).
 Proc.   0 individual time (sec): cpu=         59.8  wall=         61.4

 Calculation completed.
.Delivered   14 WARNINGs and   7 COMMENTs to log file.
