  ABINIT 9.7.4
  
 DeprecationWarning: 

     The files file has been deprecated in Abinit9 and will be removed in Abinit10.
     Use the syntax `abinit t01.abi` where t01.abi is an input with pseudopotentials e.g.

            pseudos = "al.psp8, as.psp8"


  Give name for formatted input file: 
Fe_noSO.in
  Give name for formatted output file:
Fe_e50_k4_noSO.out
  Give root name for generic input files:
Fe_e50_k4_noSO.i
  Give root name for generic output files:
Fe_e50_k4_noSO.o
  Give root name for generic temporary files:
Fe_e50_k4_noSO.tmp

.Version 9.7.4 of ABINIT 
.(MPI version, prepared for a x86_64_linux_gnu9.4 computer) 

.Copyright (C) 1998-2022 ABINIT group . 
 ABINIT comes with ABSOLUTELY NO WARRANTY.
 It is free software, and you are welcome to redistribute it
 under certain conditions (GNU General Public License,
 see ~abinit/COPYING or http://www.gnu.org/copyleft/gpl.txt).

 ABINIT is a project of the Universite Catholique de Louvain,
 Corning Inc. and other collaborators, see ~abinit/doc/developers/contributors.txt .
 Please read https://docs.abinit.org/theory/acknowledgments for suggested
 acknowledgments of the ABINIT effort.
 For more information, see https://www.abinit.org .

.Starting date : Sun 11 Feb 2024.
- ( at 11h27 )
  

 ++++++++++++++++++++++++++++++++++++++++++++++++++++++++++++++++++++++++++++++

 === Build Information === 
  Version       : 9.7.4
  Build target  : x86_64_linux_gnu9.4
  Build date    : 20220527

 === Compiler Suite === 
  C compiler       : gnu9.4
  C++ compiler     : gnu9.4
  Fortran compiler : gnu9.4
  CFLAGS           : -g -O2
  CXXFLAGS         : -g -O2 -mtune=native -march=native
  FCFLAGS          : -g -ffree-line-length-none  -fopenmp   -I/data/shared/yambo-libs/de ...
  FC_LDFLAGS       : 

 === Optimizations === 
  Debug level        : basic
  Optimization level : standard
  Architecture       : unknown_unknown

 === Multicore === 
  Parallel build : yes
  Parallel I/O   : yes
  openMP support : yes
  GPU support    : 

 === Connectors / Fallbacks === 
  LINALG flavor  : netlib
  FFT flavor     : goedecker
  HDF5           : yes
  NetCDF         : yes
  NetCDF Fortran : yes
  LibXC          : yes
  Wannier90      : no

 === Experimental features === 
  Exports             : 
  GW double-precision : 

 ++++++++++++++++++++++++++++++++++++++++++++++++++++++++++++++++++++++++++++++


 ++++++++++++++++++++++++++++++++++++++++++++++++++++++++++++++++++++++++++++++
 Default optimizations:
   -O2 -mtune=native -march=native


 Optimizations for 43_ptgroups:
   -O0


 ++++++++++++++++++++++++++++++++++++++++++++++++++++++++++++++++++++++++++++++


 ++++++++++++++++++++++++++++++++++++++++++++++++++++++++++++++++++++++++++++++
 CPP options activated during the build:

                    CC_GNU                   CXX_GNU                    FC_GNU
 
 HAVE_FC_ALLOCATABLE_DT...             HAVE_FC_ASYNC         HAVE_FC_BACKTRACE
 
  HAVE_FC_COMMAND_ARGUMENT      HAVE_FC_COMMAND_LINE        HAVE_FC_CONTIGUOUS
 
           HAVE_FC_CPUTIME              HAVE_FC_EXIT             HAVE_FC_FLUSH
 
             HAVE_FC_GAMMA            HAVE_FC_GETENV   HAVE_FC_IEEE_ARITHMETIC
 
   HAVE_FC_IEEE_EXCEPTIONS          HAVE_FC_INT_QUAD             HAVE_FC_IOMSG
 
     HAVE_FC_ISO_C_BINDING  HAVE_FC_ISO_FORTRAN_2008        HAVE_FC_LONG_LINES
 
        HAVE_FC_MOVE_ALLOC  HAVE_FC_ON_THE_FLY_SHAPE           HAVE_FC_PRIVATE
 
         HAVE_FC_PROTECTED           HAVE_FC_SHIFTLR         HAVE_FC_STREAM_IO
 
            HAVE_FC_SYSTEM          HAVE_FORTRAN2003                 HAVE_HDF5
 
             HAVE_HDF5_MPI        HAVE_LIBPAW_ABINIT      HAVE_LIBTETRA_ABINIT
 
                HAVE_LIBXC                  HAVE_MPI                 HAVE_MPI2
 
       HAVE_MPI_IALLGATHER       HAVE_MPI_IALLREDUCE        HAVE_MPI_IALLTOALL
 
       HAVE_MPI_IALLTOALLV           HAVE_MPI_IBCAST         HAVE_MPI_IGATHERV
 
        HAVE_MPI_INTEGER16               HAVE_MPI_IO HAVE_MPI_TYPE_CREATE_S...
 
               HAVE_NETCDF       HAVE_NETCDF_FORTRAN   HAVE_NETCDF_FORTRAN_MPI
 
           HAVE_NETCDF_MPI                HAVE_NUMPY         HAVE_OMP_COLLAPSE
 
               HAVE_OPENMP             HAVE_OS_LINUX         HAVE_TIMER_ABINIT
 
 ++++++++++++++++++++++++++++++++++++++++++++++++++++++++++++++++++++++++++++++

- input  file    -> Fe_noSO.in
- output file    -> Fe_e50_k4_noSO.out
- root for input  files -> Fe_e50_k4_noSO.i
- root for output files -> Fe_e50_k4_noSO.o

 Netcdf library supports MPI-IO
-instrng: 169 lines of input have been read from file Fe_noSO.in


 Please give name of formatted atomic psp file (and finish with a newline character)
 For atom type 1, psp file is 26fe.16.hgh
  read the values zionpsp= 16.0 , pspcod=   3 , lmax=   2

 inpspheads: deduce mpsang = 3, n1xccc = 0.

======================================================= 
 invars1m : enter jdtset= 1

 symlatt: the Bravais lattice is cI (body-centered cubic)
  xred   is defined in input file
 ingeo: takes atomic coordinates from input array xred

--- !COMMENT
src_file: m_ingeo.F90
src_line: 900
message: |
    The tolerance on symmetries =   1.000E-05 is bigger than 1.0e-8.
    In order to avoid spurious effects, the atomic coordinates have been
    symmetrized before storing them in the dataset internal variable.
    So, do not be surprised by the fact that your input variables (xcart, xred, ...)
    do not correspond exactly to the ones echoed by ABINIT, the latter being used to do the calculations.
    This is not a problem per se.
    Still, in order to avoid this symmetrization (e.g. for specific debugging/development), decrease tolsym to 1.0e-8 or lower,
    or (much preferred) use input primitive vectors that are accurate to better than 1.0e-8.
    This message will only be printed once, even if there are other datasets where tolsym is bigger than 1.0e-8.
...


 symlatt: the Bravais lattice is cI (body-centered cubic)

 symlatt: the Bravais lattice is cI (body-centered cubic)
 symspgr: spgroup= 229  Im -3 m   (=Oh^9)
 symspgr: optical characteristics = isotropic

======================================================= 
 invars1m : enter jdtset= 2

 symlatt: the Bravais lattice is cI (body-centered cubic)
  xred   is defined in input file
 ingeo: takes atomic coordinates from input array xred

 symlatt: the Bravais lattice is cI (body-centered cubic)

 symlatt: the Bravais lattice is cI (body-centered cubic)
 symspgr: spgroup= 229  Im -3 m   (=Oh^9)
 symspgr: optical characteristics = isotropic

======================================================= 
 invars1m : enter jdtset= 3

 symlatt: the Bravais lattice is cI (body-centered cubic)
  xred   is defined in input file
 ingeo: takes atomic coordinates from input array xred

 symlatt: the Bravais lattice is cI (body-centered cubic)

 symlatt: the Bravais lattice is cI (body-centered cubic)
 symspgr: spgroup= 229  Im -3 m   (=Oh^9)
 symspgr: optical characteristics = isotropic

======================================================= 
 invars1m : enter jdtset= 4

 symlatt: the Bravais lattice is cI (body-centered cubic)
  xred   is defined in input file
 ingeo: takes atomic coordinates from input array xred

 symlatt: the Bravais lattice is cI (body-centered cubic)

 symlatt: the Bravais lattice is cI (body-centered cubic)
 symspgr: spgroup= 229  Im -3 m   (=Oh^9)
 symspgr: optical characteristics = isotropic

======================================================= 
 invars1m : enter jdtset= 5

 symlatt: the Bravais lattice is cI (body-centered cubic)
  xred   is defined in input file
 ingeo: takes atomic coordinates from input array xred

 symlatt: the Bravais lattice is cI (body-centered cubic)

 symlatt: the Bravais lattice is cI (body-centered cubic)
 symspgr: spgroup= 229  Im -3 m   (=Oh^9)
 symspgr: optical characteristics = isotropic

======================================================= 
 invars1m : enter jdtset= 6

 symlatt: the Bravais lattice is cI (body-centered cubic)
  xred   is defined in input file
 ingeo: takes atomic coordinates from input array xred

 symlatt: the Bravais lattice is cI (body-centered cubic)

 symlatt: the Bravais lattice is cI (body-centered cubic)
 symspgr: spgroup= 229  Im -3 m   (=Oh^9)
 symspgr: optical characteristics = isotropic
 invars2: read the value of fband=  8.00000000E+00 from input file.
 initocc_chkneu: initialized the occupation numbers for occopt= 7
    spin up   values:
 initocc_chkneu: initialized the occupation numbers for occopt= 7
    spin up   values:
 initocc_chkneu: initialized the occupation numbers for occopt= 7
    spin up   values:
 initocc_chkneu: initialized the occupation numbers for occopt= 7
    spin up   values:
 initocc_chkneu: initialized the occupation numbers for occopt= 7
    spin up   values:
 initocc_chkneu: initialized the occupation numbers for occopt= 7
    spin up   values:
 For input ecut=  5.000000E+01 best grid ngfft=      30      30      30
       max ecut=  5.039558E+01

 ==== FFT mesh ====
  FFT mesh divisions ........................    30   30   30
  Augmented FFT divisions ...................    31   31   30
  FFT algorithm .............................   112
  FFT cache size ............................    16
 getmpw: optimal value of mpw= 1365
 For input ecut=  5.000000E+01 best grid ngfft=      30      30      30
       max ecut=  5.039558E+01

 ==== FFT mesh ====
  FFT mesh divisions ........................    30   30   30
  Augmented FFT divisions ...................    31   31   30
  FFT algorithm .............................   112
  FFT cache size ............................    16
 getmpw: optimal value of mpw= 1358
 For input ecut=  5.000000E+01 best grid ngfft=      30      30      30
       max ecut=  5.039558E+01

 ==== FFT mesh ====
  FFT mesh divisions ........................    30   30   30
  Augmented FFT divisions ...................    31   31   30
  FFT algorithm .............................   112
  FFT cache size ............................    16
 getmpw: optimal value of mpw= 1358
 For input ecut=  5.000000E+01 best grid ngfft=      30      30      30
       max ecut=  5.039558E+01

 ==== FFT mesh ====
  FFT mesh divisions ........................    30   30   30
  Augmented FFT divisions ...................    31   31   30
  FFT algorithm .............................   112
  FFT cache size ............................    16
 getmpw: optimal value of mpw= 1358
 For input ecut=  5.000000E+01 best grid ngfft=      30      30      30
       max ecut=  5.039558E+01

 ==== FFT mesh ====
  FFT mesh divisions ........................    30   30   30
  Augmented FFT divisions ...................    31   31   30
  FFT algorithm .............................   112
  FFT cache size ............................    16
 getmpw: optimal value of mpw= 1358
 For input ecut=  5.000000E+01 best grid ngfft=      30      30      30
       max ecut=  5.039558E+01

 ==== FFT mesh ====
  FFT mesh divisions ........................    30   30   30
  Augmented FFT divisions ...................    31   31   30
  FFT algorithm .............................   112
  FFT cache size ............................    16
 getmpw: optimal value of mpw= 1377

 DATASET    1 : space group Im -3 m (#229); Bravais cI (body-center cubic)

 getdim_nloc : deduce lmnmax  =  13, lnmax  =   5,
                      lmnmaxso=  24, lnmaxso=   8.
memory: analysis of memory needs
================================================================================
 Values of the parameters that define the memory need for DATASET  1.
     intxc =       0    ionmov =       0      iscf =       7    lmnmax =       5
     lnmax =       5     mgfft =      30  mpssoang =       3    mqgrid =    3001
     natom =       1  nloc_mem =       1    nspden =       2   nspinor =       1
    nsppol =       2      nsym =      48    n1xccc =       0    ntypat =       1
    occopt =       7   xclevel =       1
-    mband =          19        mffmem =           1         mkmem =          26
       mpw =        1365          nfft =       27000          nkpt =          26
================================================================================
P This job should need less than                      34.860 Mbytes of memory.
  Rough estimation (10% accuracy) of disk space for files :
_ WF disk file :     20.580 Mbytes ; DEN or POT disk file :      0.414 Mbytes.
================================================================================

 Biggest array : cg(disk), with     20.5803 MBytes.
 memana : allocated an array of     20.580 Mbytes, for testing purposes.
 memana: allocated      34.860Mbytes, for testing purposes. 
 The job will continue.

 DATASET    2 : space group Im -3 m (#229); Bravais cI (body-center cubic)

 getdim_nloc : deduce lmnmax  =  13, lnmax  =   5,
                      lmnmaxso=  24, lnmaxso=   8.
memory: analysis of memory needs
================================================================================
 Values of the parameters that define the memory need for DATASET  2.
     intxc =       0    ionmov =       0      iscf =      -2    lmnmax =       5
     lnmax =       5     mgfft =      30  mpssoang =       3    mqgrid =    3001
     natom =       1  nloc_mem =       1    nspden =       2   nspinor =       1
    nsppol =       2      nsym =      48    n1xccc =       0    ntypat =       1
    occopt =       7   xclevel =       1
-    mband =          15        mffmem =           1         mkmem =           6
       mpw =        1358          nfft =       27000          nkpt =           6
================================================================================
P This job should need less than                      10.997 Mbytes of memory.
  Rough estimation (10% accuracy) of disk space for files :
_ WF disk file :      3.732 Mbytes ; DEN or POT disk file :      0.414 Mbytes.
================================================================================

 Biggest array : cg(disk), with      3.7319 MBytes.
 memana : allocated an array of      3.732 Mbytes, for testing purposes.
 memana: allocated      10.997Mbytes, for testing purposes. 
 The job will continue.

 DATASET    3 : space group Im -3 m (#229); Bravais cI (body-center cubic)

 getdim_nloc : deduce lmnmax  =  13, lnmax  =   5,
                      lmnmaxso=  24, lnmaxso=   8.
memory: analysis of memory needs
================================================================================
 Values of the parameters that define the memory need for DATASET  3.
     intxc =       0    ionmov =       0      iscf =      -2    lmnmax =       5
     lnmax =       5     mgfft =      30  mpssoang =       3    mqgrid =    3001
     natom =       1  nloc_mem =       1    nspden =       2   nspinor =       1
    nsppol =       2      nsym =      48    n1xccc =       0    ntypat =       1
    occopt =       7   xclevel =       1
-    mband =          15        mffmem =           1         mkmem =           6
       mpw =        1358          nfft =       27000          nkpt =           6
================================================================================
P This job should need less than                      10.997 Mbytes of memory.
  Rough estimation (10% accuracy) of disk space for files :
_ WF disk file :      3.732 Mbytes ; DEN or POT disk file :      0.414 Mbytes.
================================================================================

 Biggest array : cg(disk), with      3.7319 MBytes.
 memana : allocated an array of      3.732 Mbytes, for testing purposes.
 memana: allocated      10.997Mbytes, for testing purposes. 
 The job will continue.

 DATASET    4 : space group Im -3 m (#229); Bravais cI (body-center cubic)

 getdim_nloc : deduce lmnmax  =  13, lnmax  =   5,
                      lmnmaxso=  24, lnmaxso=   8.
memory: analysis of memory needs
================================================================================
 Values of the parameters that define the memory need for DATASET  4.
     intxc =       0    ionmov =       0      iscf =      -2    lmnmax =       5
     lnmax =       5     mgfft =      30  mpssoang =       3    mqgrid =    3001
     natom =       1  nloc_mem =       1    nspden =       2   nspinor =       1
    nsppol =       2      nsym =      48    n1xccc =       0    ntypat =       1
    occopt =       7   xclevel =       1
-    mband =          15        mffmem =           1         mkmem =           6
       mpw =        1358          nfft =       27000          nkpt =           6
================================================================================
P This job should need less than                      10.997 Mbytes of memory.
  Rough estimation (10% accuracy) of disk space for files :
_ WF disk file :      3.732 Mbytes ; DEN or POT disk file :      0.414 Mbytes.
================================================================================

 Biggest array : cg(disk), with      3.7319 MBytes.
 memana : allocated an array of      3.732 Mbytes, for testing purposes.
 memana: allocated      10.997Mbytes, for testing purposes. 
 The job will continue.

 DATASET    5 : space group Im -3 m (#229); Bravais cI (body-center cubic)

 getdim_nloc : deduce lmnmax  =  13, lnmax  =   5,
                      lmnmaxso=  24, lnmaxso=   8.
memory: analysis of memory needs
================================================================================
 Values of the parameters that define the memory need for DATASET  5.
     intxc =       0    ionmov =       0      iscf =      -2    lmnmax =       5
     lnmax =       5     mgfft =      30  mpssoang =       3    mqgrid =    3001
     natom =       1  nloc_mem =       1    nspden =       2   nspinor =       1
    nsppol =       2      nsym =      48    n1xccc =       0    ntypat =       1
    occopt =       7   xclevel =       1
-    mband =          15        mffmem =           1         mkmem =           6
       mpw =        1358          nfft =       27000          nkpt =           6
================================================================================
P This job should need less than                      10.997 Mbytes of memory.
  Rough estimation (10% accuracy) of disk space for files :
_ WF disk file :      3.732 Mbytes ; DEN or POT disk file :      0.414 Mbytes.
================================================================================

 Biggest array : cg(disk), with      3.7319 MBytes.
 memana : allocated an array of      3.732 Mbytes, for testing purposes.
 memana: allocated      10.997Mbytes, for testing purposes. 
 The job will continue.

 DATASET    6 : space group Im -3 m (#229); Bravais cI (body-center cubic)

 getdim_nloc : deduce lmnmax  =  13, lnmax  =   5,
                      lmnmaxso=  24, lnmaxso=   8.
memory: analysis of memory needs
================================================================================
 Values of the parameters that define the memory need for DATASET  6.
     intxc =       0    ionmov =       0      iscf =      -2    lmnmax =       5
     lnmax =       5     mgfft =      30  mpssoang =       3    mqgrid =    3001
     natom =       1  nloc_mem =       1    nspden =       2   nspinor =       1
    nsppol =       2      nsym =      48    n1xccc =       0    ntypat =       1
    occopt =       7   xclevel =       1
-    mband =          15        mffmem =           1         mkmem =         140
       mpw =        1377          nfft =       27000          nkpt =         140
================================================================================
P This job should need less than                      98.153 Mbytes of memory.
  Rough estimation (10% accuracy) of disk space for files :
_ WF disk file :     88.250 Mbytes ; DEN or POT disk file :      0.414 Mbytes.
================================================================================

 Biggest array : cg(disk), with     88.2497 MBytes.
 memana : allocated an array of     88.250 Mbytes, for testing purposes.
 memana: allocated      98.153Mbytes, for testing purposes. 
 The job will continue.
--------------------------------------------------------------------------------
------------- Echo of variables that govern the present computation ------------
--------------------------------------------------------------------------------
-
- outvars: echo of selected default values                                      
-   iomode0 =  0 , fftalg0 =112 , wfoptalg0 =  0
-
- outvars: echo of global parameters not present in the input file              
-  max_nthreads =    1
-
 -outvars: echo values of preprocessed input variables --------
 
 These variables are accessible in NetCDF format (Fe_e50_k4_noSO.o_OUT.nc)

-          iomode           3
            acell      5.4200000000E+00  5.4200000000E+00  5.4200000000E+00 Bohr
              amu      5.58470000E+01
             ecut      5.00000000E+01 Hartree
           enunit           1
-          fftalg         112
           getden1          0
           getden2          1
           getden3          1
           getden4          1
           getden5          1
           getden6          1
             iscf1          7
             iscf2         -2
             iscf3         -2
             iscf4         -2
             iscf5         -2
             iscf6         -2
           jdtset        1    2    3    4    5    6
              kpt1     6.25000000E-02  6.25000000E-02  6.25000000E-02
                       1.87500000E-01  6.25000000E-02  6.25000000E-02
                       3.12500000E-01  6.25000000E-02  6.25000000E-02
                       4.37500000E-01  6.25000000E-02  6.25000000E-02
                      -6.25000000E-02  6.25000000E-02  6.25000000E-02
                       1.87500000E-01  1.87500000E-01  6.25000000E-02
                       3.12500000E-01  1.87500000E-01  6.25000000E-02
                      -1.87500000E-01  1.87500000E-01  6.25000000E-02
                       3.12500000E-01  3.12500000E-01  6.25000000E-02
                      -3.12500000E-01  3.12500000E-01  6.25000000E-02
                      -1.87500000E-01  3.12500000E-01  6.25000000E-02
                      -4.37500000E-01  4.37500000E-01  6.25000000E-02
                      -3.12500000E-01  4.37500000E-01  6.25000000E-02
                      -4.37500000E-01 -4.37500000E-01  6.25000000E-02
                      -3.12500000E-01 -4.37500000E-01  6.25000000E-02
                       1.87500000E-01  1.87500000E-01  1.87500000E-01
                       3.12500000E-01  1.87500000E-01  1.87500000E-01
                      -1.87500000E-01  1.87500000E-01  1.87500000E-01
                      -3.12500000E-01  3.12500000E-01  1.87500000E-01
                      -4.37500000E-01  4.37500000E-01  1.87500000E-01
                      -3.12500000E-01  4.37500000E-01  1.87500000E-01
                      -4.37500000E-01 -4.37500000E-01  1.87500000E-01
                      -3.12500000E-01  3.12500000E-01  3.12500000E-01
                      -4.37500000E-01  4.37500000E-01  3.12500000E-01
                      -4.37500000E-01 -4.37500000E-01  3.12500000E-01
                      -4.37500000E-01  4.37500000E-01  4.37500000E-01
              kpt2     1.25000000E-01  1.25000000E-01  1.25000000E-01
                       3.75000000E-01  1.25000000E-01  1.25000000E-01
                      -1.25000000E-01  1.25000000E-01  1.25000000E-01
                      -3.75000000E-01  3.75000000E-01  1.25000000E-01
                      -3.75000000E-01 -3.75000000E-01  1.25000000E-01
                      -3.75000000E-01  3.75000000E-01  3.75000000E-01
              kpt3     1.24978438E-01  1.25021562E-01  1.25021577E-01
                       3.74978423E-01  1.25021562E-01  1.25021577E-01
                      -1.25021562E-01  1.25021562E-01  1.25021562E-01
                      -3.75021577E-01  3.75021577E-01  1.25021577E-01
                      -3.75021577E-01 -3.74978423E-01  1.25021577E-01
                      -3.75021577E-01  3.75021577E-01  3.75021577E-01
              kpt4     1.25021562E-01  1.24978438E-01  1.25021577E-01
                       3.75021577E-01  1.24978423E-01  1.25021577E-01
                      -1.24978445E-01  1.24978445E-01  1.25021562E-01
                      -3.74978423E-01  3.74978423E-01  1.25021577E-01
                      -3.74978423E-01 -3.75021577E-01  1.25021577E-01
                      -3.74978423E-01  3.74978423E-01  3.75021577E-01
              kpt5     1.25021562E-01  1.25021562E-01  1.24978438E-01
                       3.75021577E-01  1.25021577E-01  1.24978423E-01
                      -1.24978445E-01  1.25021562E-01  1.24978445E-01
                      -3.74978423E-01  3.75021577E-01  1.24978431E-01
                      -3.74978423E-01 -3.74978423E-01  1.24978423E-01
                      -3.74978423E-01  3.75021577E-01  3.74978423E-01
              kpt6     3.12500000E-02  3.12500000E-02  3.12500000E-02
                       9.37500000E-02  3.12500000E-02  3.12500000E-02
                       1.56250000E-01  3.12500000E-02  3.12500000E-02
                       2.18750000E-01  3.12500000E-02  3.12500000E-02
                       2.81250000E-01  3.12500000E-02  3.12500000E-02
                       3.43750000E-01  3.12500000E-02  3.12500000E-02
                       4.06250000E-01  3.12500000E-02  3.12500000E-02
                       4.68750000E-01  3.12500000E-02  3.12500000E-02
                      -3.12500000E-02  3.12500000E-02  3.12500000E-02
                       9.37500000E-02  9.37500000E-02  3.12500000E-02
                       1.56250000E-01  9.37500000E-02  3.12500000E-02
                       2.18750000E-01  9.37500000E-02  3.12500000E-02
                       2.81250000E-01  9.37500000E-02  3.12500000E-02
                       3.43750000E-01  9.37500000E-02  3.12500000E-02
                       4.06250000E-01  9.37500000E-02  3.12500000E-02
                      -9.37500000E-02  9.37500000E-02  3.12500000E-02
                       1.56250000E-01  1.56250000E-01  3.12500000E-02
                       2.18750000E-01  1.56250000E-01  3.12500000E-02
                       2.81250000E-01  1.56250000E-01  3.12500000E-02
                       3.43750000E-01  1.56250000E-01  3.12500000E-02
                       4.06250000E-01  1.56250000E-01  3.12500000E-02
                      -1.56250000E-01  1.56250000E-01  3.12500000E-02
                      -9.37500000E-02  1.56250000E-01  3.12500000E-02
                       2.18750000E-01  2.18750000E-01  3.12500000E-02
                       2.81250000E-01  2.18750000E-01  3.12500000E-02
                       3.43750000E-01  2.18750000E-01  3.12500000E-02
                      -2.18750000E-01  2.18750000E-01  3.12500000E-02
                      -1.56250000E-01  2.18750000E-01  3.12500000E-02
                       2.81250000E-01  2.81250000E-01  3.12500000E-02
                       3.43750000E-01  2.81250000E-01  3.12500000E-02
                      -2.81250000E-01  2.81250000E-01  3.12500000E-02
                      -2.18750000E-01  2.81250000E-01  3.12500000E-02
                      -1.56250000E-01  2.81250000E-01  3.12500000E-02
                      -3.43750000E-01  3.43750000E-01  3.12500000E-02
                      -2.81250000E-01  3.43750000E-01  3.12500000E-02
                      -2.18750000E-01  3.43750000E-01  3.12500000E-02
                      -4.06250000E-01  4.06250000E-01  3.12500000E-02
                      -3.43750000E-01  4.06250000E-01  3.12500000E-02
                      -2.81250000E-01  4.06250000E-01  3.12500000E-02
                      -2.18750000E-01  4.06250000E-01  3.12500000E-02
                      -4.68750000E-01  4.68750000E-01  3.12500000E-02
                      -4.06250000E-01  4.68750000E-01  3.12500000E-02
                      -3.43750000E-01  4.68750000E-01  3.12500000E-02
                      -2.81250000E-01  4.68750000E-01  3.12500000E-02
                      -4.68750000E-01 -4.68750000E-01  3.12500000E-02
                      -4.06250000E-01 -4.68750000E-01  3.12500000E-02
                      -3.43750000E-01 -4.68750000E-01  3.12500000E-02
                      -2.81250000E-01 -4.68750000E-01  3.12500000E-02
                      -4.06250000E-01 -4.06250000E-01  3.12500000E-02
                      -3.43750000E-01 -4.06250000E-01  3.12500000E-02
                       outvar_i_n : Printing only first  50 k-points.
           kptopt1          4
           kptopt2          4
           kptopt3          0
           kptopt4          0
           kptopt5          0
           kptopt6          4
         kptrlatt1       8    0    0      0    8    0      0    0    8
         kptrlatt2       4    0    0      0    4    0      0    0    4
         kptrlatt6      16    0    0      0   16    0      0    0   16
          kptrlen1     3.75508615E+01
          kptrlen2     1.87754308E+01
          kptrlen3     3.00000000E+01
          kptrlen4     3.00000000E+01
          kptrlen5     3.00000000E+01
          kptrlen6     7.51017230E+01
          kssform1          1
          kssform2          3
          kssform3          3
          kssform4          3
          kssform5          3
          kssform6          3
P           mkmem1         26
P           mkmem2          6
P           mkmem3          6
P           mkmem4          6
P           mkmem5          6
P           mkmem6        140
            natom           1
            nband1         19
            nband2         15
            nband3         15
            nband4         15
            nband5         15
            nband6         15
         nbandkss1          0
         nbandkss2         13
         nbandkss3         13
         nbandkss4         13
         nbandkss5         13
         nbandkss6         13
           nbdbuf1          0
           nbdbuf2         10
           nbdbuf3         10
           nbdbuf4         10
           nbdbuf5         10
           nbdbuf6         10
           ndtset           6
            ngfft          30      30      30
             nkpt1         26
             nkpt2          6
             nkpt3          6
             nkpt4          6
             nkpt5          6
             nkpt6        140
           nspden           2
           nsppol           2
            nstep1        100
            nstep2        300
            nstep3        300
            nstep4        300
            nstep5        300
            nstep6        300
             nsym          48
           ntypat           1
              occ      1.000000  1.000000  1.000000  1.000000  1.000000  1.000000
                       1.000000  1.000000  0.000000  0.000000  0.000000  0.000000
                       0.000000  0.000000  0.000000  0.000000  0.000000  0.000000
                       0.000000
                       1.000000  1.000000  1.000000  1.000000  1.000000  1.000000
                       1.000000  1.000000  0.000000  0.000000  0.000000  0.000000
                       0.000000  0.000000  0.000000  0.000000  0.000000  0.000000
                       0.000000
                       1.000000  1.000000  1.000000  1.000000  1.000000  1.000000
                       1.000000  1.000000  0.000000  0.000000  0.000000  0.000000
                       0.000000  0.000000  0.000000  0.000000  0.000000  0.000000
                       0.000000
                       1.000000  1.000000  1.000000  1.000000  1.000000  1.000000
                       1.000000  1.000000  0.000000  0.000000  0.000000  0.000000
                       0.000000  0.000000  0.000000  0.000000  0.000000  0.000000
                       0.000000
                       1.000000  1.000000  1.000000  1.000000  1.000000  1.000000
                       1.000000  1.000000  0.000000  0.000000  0.000000  0.000000
                       0.000000  0.000000  0.000000  0.000000  0.000000  0.000000
                       0.000000
                       1.000000  1.000000  1.000000  1.000000  1.000000  1.000000
                       1.000000  1.000000  0.000000  0.000000  0.000000  0.000000
                       0.000000  0.000000  0.000000  0.000000  0.000000  0.000000
                       0.000000
                       1.000000  1.000000  1.000000  1.000000  1.000000  1.000000
                       1.000000  1.000000  0.000000  0.000000  0.000000  0.000000
                       0.000000  0.000000  0.000000  0.000000  0.000000  0.000000
                       0.000000
                       1.000000  1.000000  1.000000  1.000000  1.000000  1.000000
                       1.000000  1.000000  0.000000  0.000000  0.000000  0.000000
                       0.000000  0.000000  0.000000  0.000000  0.000000  0.000000
                       0.000000
                       1.000000  1.000000  1.000000  1.000000  1.000000  1.000000
                       1.000000  1.000000  0.000000  0.000000  0.000000  0.000000
                       0.000000  0.000000  0.000000  0.000000  0.000000  0.000000
                       0.000000
                       1.000000  1.000000  1.000000  1.000000  1.000000  1.000000
                       1.000000  1.000000  0.000000  0.000000  0.000000  0.000000
                       0.000000  0.000000  0.000000  0.000000  0.000000  0.000000
                       0.000000
                       1.000000  1.000000  1.000000  1.000000  1.000000  1.000000
                       1.000000  1.000000  0.000000  0.000000  0.000000  0.000000
                       0.000000  0.000000  0.000000  0.000000  0.000000  0.000000
                       0.000000
                       1.000000  1.000000  1.000000  1.000000  1.000000  1.000000
                       1.000000  1.000000  0.000000  0.000000  0.000000  0.000000
                       0.000000  0.000000  0.000000  0.000000  0.000000  0.000000
                       0.000000
                       1.000000  1.000000  1.000000  1.000000  1.000000  1.000000
                       1.000000  1.000000  0.000000  0.000000  0.000000  0.000000
                       0.000000  0.000000  0.000000  0.000000  0.000000  0.000000
                       0.000000
                       1.000000  1.000000  1.000000  1.000000  1.000000  1.000000
                       1.000000  1.000000  0.000000  0.000000  0.000000  0.000000
                       0.000000  0.000000  0.000000  0.000000  0.000000  0.000000
                       0.000000
                       1.000000  1.000000  1.000000  1.000000  1.000000  1.000000
                       1.000000  1.000000  0.000000  0.000000  0.000000  0.000000
                       0.000000  0.000000  0.000000  0.000000  0.000000  0.000000
                       0.000000
                       1.000000  1.000000  1.000000  1.000000  1.000000  1.000000
                       1.000000  1.000000  0.000000  0.000000  0.000000  0.000000
                       0.000000  0.000000  0.000000  0.000000  0.000000  0.000000
                       0.000000
                       1.000000  1.000000  1.000000  1.000000  1.000000  1.000000
                       1.000000  1.000000  0.000000  0.000000  0.000000  0.000000
                       0.000000  0.000000  0.000000  0.000000  0.000000  0.000000
                       0.000000
                       1.000000  1.000000  1.000000  1.000000  1.000000  1.000000
                       1.000000  1.000000  0.000000  0.000000  0.000000  0.000000
                       0.000000  0.000000  0.000000  0.000000  0.000000  0.000000
                       0.000000
                       1.000000  1.000000  1.000000  1.000000  1.000000  1.000000
                       1.000000  1.000000  0.000000  0.000000  0.000000  0.000000
                       0.000000  0.000000  0.000000  0.000000  0.000000  0.000000
                       0.000000
                       1.000000  1.000000  1.000000  1.000000  1.000000  1.000000
                       1.000000  1.000000  0.000000  0.000000  0.000000  0.000000
                       0.000000  0.000000  0.000000  0.000000  0.000000  0.000000
                       0.000000
                       1.000000  1.000000  1.000000  1.000000  1.000000  1.000000
                       1.000000  1.000000  0.000000  0.000000  0.000000  0.000000
                       0.000000  0.000000  0.000000  0.000000  0.000000  0.000000
                       0.000000
                       1.000000  1.000000  1.000000  1.000000  1.000000  1.000000
                       1.000000  1.000000  0.000000  0.000000  0.000000  0.000000
                       0.000000  0.000000  0.000000  0.000000  0.000000  0.000000
                       0.000000
                       1.000000  1.000000  1.000000  1.000000  1.000000  1.000000
                       1.000000  1.000000  0.000000  0.000000  0.000000  0.000000
                       0.000000  0.000000  0.000000  0.000000  0.000000  0.000000
                       0.000000
                       1.000000  1.000000  1.000000  1.000000  1.000000  1.000000
                       1.000000  1.000000  0.000000  0.000000  0.000000  0.000000
                       0.000000  0.000000  0.000000  0.000000  0.000000  0.000000
                       0.000000
                       1.000000  1.000000  1.000000  1.000000  1.000000  1.000000
                       1.000000  1.000000  0.000000  0.000000  0.000000  0.000000
                       0.000000  0.000000  0.000000  0.000000  0.000000  0.000000
                       0.000000
                       1.000000  1.000000  1.000000  1.000000  1.000000  1.000000
                       1.000000  1.000000  0.000000  0.000000  0.000000  0.000000
                       0.000000  0.000000  0.000000  0.000000  0.000000  0.000000
                       0.000000
                       1.000000  1.000000  1.000000  1.000000  1.000000  1.000000
                       1.000000  1.000000  0.000000  0.000000  0.000000  0.000000
                       0.000000  0.000000  0.000000  0.000000  0.000000  0.000000
                       0.000000
                       1.000000  1.000000  1.000000  1.000000  1.000000  1.000000
                       1.000000  1.000000  0.000000  0.000000  0.000000  0.000000
                       0.000000  0.000000  0.000000  0.000000  0.000000  0.000000
                       0.000000
                       1.000000  1.000000  1.000000  1.000000  1.000000  1.000000
                       1.000000  1.000000  0.000000  0.000000  0.000000  0.000000
                       0.000000  0.000000  0.000000  0.000000  0.000000  0.000000
                       0.000000
                       1.000000  1.000000  1.000000  1.000000  1.000000  1.000000
                       1.000000  1.000000  0.000000  0.000000  0.000000  0.000000
                       0.000000  0.000000  0.000000  0.000000  0.000000  0.000000
                       0.000000
                       1.000000  1.000000  1.000000  1.000000  1.000000  1.000000
                       1.000000  1.000000  0.000000  0.000000  0.000000  0.000000
                       0.000000  0.000000  0.000000  0.000000  0.000000  0.000000
                       0.000000
                       1.000000  1.000000  1.000000  1.000000  1.000000  1.000000
                       1.000000  1.000000  0.000000  0.000000  0.000000  0.000000
                       0.000000  0.000000  0.000000  0.000000  0.000000  0.000000
                       0.000000
                       1.000000  1.000000  1.000000  1.000000  1.000000  1.000000
                       1.000000  1.000000  0.000000  0.000000  0.000000  0.000000
                       0.000000  0.000000  0.000000  0.000000  0.000000  0.000000
                       0.000000
                       1.000000  1.000000  1.000000  1.000000  1.000000  1.000000
                       1.000000  1.000000  0.000000  0.000000  0.000000  0.000000
                       0.000000  0.000000  0.000000  0.000000  0.000000  0.000000
                       0.000000
                       1.000000  1.000000  1.000000  1.000000  1.000000  1.000000
                       1.000000  1.000000  0.000000  0.000000  0.000000  0.000000
                       0.000000  0.000000  0.000000  0.000000  0.000000  0.000000
                       0.000000
                       1.000000  1.000000  1.000000  1.000000  1.000000  1.000000
                       1.000000  1.000000  0.000000  0.000000  0.000000  0.000000
                       0.000000  0.000000  0.000000  0.000000  0.000000  0.000000
                       0.000000
                       1.000000  1.000000  1.000000  1.000000  1.000000  1.000000
                       1.000000  1.000000  0.000000  0.000000  0.000000  0.000000
                       0.000000  0.000000  0.000000  0.000000  0.000000  0.000000
                       0.000000
                       1.000000  1.000000  1.000000  1.000000  1.000000  1.000000
                       1.000000  1.000000  0.000000  0.000000  0.000000  0.000000
                       0.000000  0.000000  0.000000  0.000000  0.000000  0.000000
                       0.000000
                       1.000000  1.000000  1.000000  1.000000  1.000000  1.000000
                       1.000000  1.000000  0.000000  0.000000  0.000000  0.000000
                       0.000000  0.000000  0.000000  0.000000  0.000000  0.000000
                       0.000000
                       1.000000  1.000000  1.000000  1.000000  1.000000  1.000000
                       1.000000  1.000000  0.000000  0.000000  0.000000  0.000000
                       0.000000  0.000000  0.000000  0.000000  0.000000  0.000000
                       0.000000
                       1.000000  1.000000  1.000000  1.000000  1.000000  1.000000
                       1.000000  1.000000  0.000000  0.000000  0.000000  0.000000
                       0.000000  0.000000  0.000000  0.000000  0.000000  0.000000
                       0.000000
                       1.000000  1.000000  1.000000  1.000000  1.000000  1.000000
                       1.000000  1.000000  0.000000  0.000000  0.000000  0.000000
                       0.000000  0.000000  0.000000  0.000000  0.000000  0.000000
                       0.000000
                       1.000000  1.000000  1.000000  1.000000  1.000000  1.000000
                       1.000000  1.000000  0.000000  0.000000  0.000000  0.000000
                       0.000000  0.000000  0.000000  0.000000  0.000000  0.000000
                       0.000000
                       1.000000  1.000000  1.000000  1.000000  1.000000  1.000000
                       1.000000  1.000000  0.000000  0.000000  0.000000  0.000000
                       0.000000  0.000000  0.000000  0.000000  0.000000  0.000000
                       0.000000
                       1.000000  1.000000  1.000000  1.000000  1.000000  1.000000
                       1.000000  1.000000  0.000000  0.000000  0.000000  0.000000
                       0.000000  0.000000  0.000000  0.000000  0.000000  0.000000
                       0.000000
                       1.000000  1.000000  1.000000  1.000000  1.000000  1.000000
                       1.000000  1.000000  0.000000  0.000000  0.000000  0.000000
                       0.000000  0.000000  0.000000  0.000000  0.000000  0.000000
                       0.000000
                       1.000000  1.000000  1.000000  1.000000  1.000000  1.000000
                       1.000000  1.000000  0.000000  0.000000  0.000000  0.000000
                       0.000000  0.000000  0.000000  0.000000  0.000000  0.000000
                       0.000000
                       1.000000  1.000000  1.000000  1.000000  1.000000  1.000000
                       1.000000  1.000000  0.000000  0.000000  0.000000  0.000000
                       0.000000  0.000000  0.000000  0.000000  0.000000  0.000000
                       0.000000
                       1.000000  1.000000  1.000000  1.000000  1.000000  1.000000
                       1.000000  1.000000  0.000000  0.000000  0.000000  0.000000
                       0.000000  0.000000  0.000000  0.000000  0.000000  0.000000
                       0.000000
                       1.000000  1.000000  1.000000  1.000000  1.000000  1.000000
                       1.000000  1.000000  0.000000  0.000000  0.000000  0.000000
                       0.000000  0.000000  0.000000  0.000000  0.000000  0.000000
                       0.000000
                       1.000000  1.000000  1.000000  1.000000  1.000000  1.000000
                       1.000000  1.000000  0.000000  0.000000  0.000000  0.000000
                       0.000000  0.000000  0.000000  0.000000  0.000000  0.000000
                       0.000000
                       1.000000  1.000000  1.000000  1.000000  1.000000  1.000000
                       1.000000  1.000000  0.000000  0.000000  0.000000  0.000000
                       0.000000  0.000000  0.000000  0.000000  0.000000  0.000000
                       0.000000
           occopt           7
          prtkbff           1
            rprim     -5.0000000000E-01  5.0000000000E-01  5.0000000000E-01
                       5.0000000000E-01 -5.0000000000E-01  5.0000000000E-01
                       5.0000000000E-01  5.0000000000E-01 -5.0000000000E-01
           shiftk      5.00000000E-01  5.00000000E-01  5.00000000E-01
           so_psp           0
          spgroup         229
           spinat      0.0000000000E+00  0.0000000000E+00  5.0000000000E+00
        symmorphi1          1
        symmorphi2          0
        symmorphi3          1
        symmorphi4          1
        symmorphi5          1
        symmorphi6          1
           symrel      1  0  0   0  1  0   0  0  1      -1  0  0   0 -1  0   0  0 -1
                      -1 -1 -1   0  0  1   0  1  0       1  1  1   0  0 -1   0 -1  0
                       0  1  0   1  0  0  -1 -1 -1       0 -1  0  -1  0  0   1  1  1
                       0  0  1  -1 -1 -1   1  0  0       0  0 -1   1  1  1  -1  0  0
                       0  1  0   1  0  0   0  0  1       0 -1  0  -1  0  0   0  0 -1
                      -1 -1 -1   0  0  1   1  0  0       1  1  1   0  0 -1  -1  0  0
                       1  0  0   0  1  0  -1 -1 -1      -1  0  0   0 -1  0   1  1  1
                       0  0  1  -1 -1 -1   0  1  0       0  0 -1   1  1  1   0 -1  0
                      -1 -1 -1   1  0  0   0  0  1       1  1  1  -1  0  0   0  0 -1
                       0  1  0   0  0  1   1  0  0       0 -1  0   0  0 -1  -1  0  0
                       1  0  0  -1 -1 -1   0  1  0      -1  0  0   1  1  1   0 -1  0
                       0  0  1   0  1  0  -1 -1 -1       0  0 -1   0 -1  0   1  1  1
                       1  0  0  -1 -1 -1   0  0  1      -1  0  0   1  1  1   0  0 -1
                       0  1  0   0  0  1  -1 -1 -1       0 -1  0   0  0 -1   1  1  1
                      -1 -1 -1   1  0  0   0  1  0       1  1  1  -1  0  0   0 -1  0
                       0  0  1   0  1  0   1  0  0       0  0 -1   0 -1  0  -1  0  0
                       0  1  0  -1 -1 -1   0  0  1       0 -1  0   1  1  1   0  0 -1
                       1  0  0   0  0  1  -1 -1 -1      -1  0  0   0  0 -1   1  1  1
                      -1 -1 -1   0  1  0   1  0  0       1  1  1   0 -1  0  -1  0  0
                       0  0  1   1  0  0   0  1  0       0  0 -1  -1  0  0   0 -1  0
                      -1 -1 -1   0  1  0   0  0  1       1  1  1   0 -1  0   0  0 -1
                       1  0  0   0  0  1   0  1  0      -1  0  0   0  0 -1   0 -1  0
                       0  1  0  -1 -1 -1   1  0  0       0 -1  0   1  1  1  -1  0  0
                       0  0  1   1  0  0  -1 -1 -1       0  0 -1  -1  0  0   1  1  1
           toldfe1     1.00000000E-10 Hartree
           toldfe2     0.00000000E+00 Hartree
           toldfe3     0.00000000E+00 Hartree
           toldfe4     0.00000000E+00 Hartree
           toldfe5     0.00000000E+00 Hartree
           toldfe6     0.00000000E+00 Hartree
           tolwfr1     0.00000000E+00
           tolwfr2     1.00000000E-16
           tolwfr3     1.00000000E-16
           tolwfr4     1.00000000E-16
           tolwfr5     1.00000000E-16
           tolwfr6     1.00000000E-16
           tsmear      5.00000000E-03 Hartree
            typat      1
              wtk1       0.01563    0.04688    0.04688    0.02344    0.01172    0.04688
                         0.09375    0.04688    0.01563    0.04688    0.04688    0.04688
                         0.09375    0.04688    0.04688    0.01563    0.02344    0.01172
                         0.04688    0.04688    0.04688    0.04688    0.01172    0.04688
                         0.01563    0.01172
              wtk2       0.12500    0.18750    0.09375    0.37500    0.12500    0.09375
              wtk3       1.00000    1.00000    1.00000    1.00000    1.00000    1.00000
              wtk4       1.00000    1.00000    1.00000    1.00000    1.00000    1.00000
              wtk5       1.00000    1.00000    1.00000    1.00000    1.00000    1.00000
              wtk6       0.00195    0.00586    0.00586    0.00586    0.00586    0.00586
                         0.00586    0.00293    0.00146    0.00586    0.01172    0.01172
                         0.01172    0.01172    0.01172    0.00586    0.00586    0.01172
                         0.01172    0.01172    0.00586    0.00586    0.00586    0.00586
                         0.01172    0.01172    0.00586    0.01172    0.00586    0.00586
                         0.00586    0.01172    0.00586    0.00586    0.01172    0.01172
                         0.00586    0.01172    0.01172    0.00586    0.00586    0.01172
                         0.01172    0.01172    0.00586    0.01172    0.01172    0.00586
                         0.00586    0.01172
                       outvars : Printing only first  50 k-points.
            znucl       26.00000

================================================================================

 chkinp: Checking input parameters for consistency, jdtset=   1.

 chkinp: Checking input parameters for consistency, jdtset=   2.
 Checking if input is consistent with KSS generation

 chkinp: Checking input parameters for consistency, jdtset=   3.
 Checking if input is consistent with KSS generation

 chkinp: Checking input parameters for consistency, jdtset=   4.
 Checking if input is consistent with KSS generation

 chkinp: Checking input parameters for consistency, jdtset=   5.
 Checking if input is consistent with KSS generation

 chkinp: Checking input parameters for consistency, jdtset=   6.
 Checking if input is consistent with KSS generation
 DATA TYPE INFORMATION: 
 REAL:      Data type name: REAL(DP) 
            Kind value:      8
            Precision:      15
            Smallest nonnegligible quantity relative to 1: 0.22204460E-015
            Smallest positive number:                      0.22250739E-307
            Largest representable number:                  0.17976931E+309
 INTEGER:   Data type name: INTEGER(default) 
            Kind value: 4
            Bit size:   32
            Largest representable number: 2147483647
 LOGICAL:   Data type name: LOGICAL 
            Kind value: 4
 CHARACTER: Data type name: CHARACTER             Kind value: 1

  ==== OpenMP parallelism is ON ====
- Max_threads:       1
- Num_threads:       1
- Num_procs:         6
- Dynamic:           F
 
  ==== Using MPI-2 specifications ==== 
  MPI-IO support is ON
  xmpi_tag_ub ................    268435455
  xmpi_bsize_ch ..............            1
  xmpi_bsize_int .............            4
  xmpi_bsize_sp ..............            4
  xmpi_bsize_dp ..............            8
  xmpi_bsize_spc .............            8
  xmpi_bsize_dpc .............           16
  xmpio_bsize_frm ............            4
  xmpi_address_kind ..........            8
  xmpi_offset_kind ...........            8
  MPI_WTICK ..................    1.0000000000000001E-009

================================================================================
== DATASET  1 ==================================================================
-   mpi_nproc: 1, omp_nthreads: 1 (-1 if OMP is not activated)


--- !COMMENT
src_file: m_xgScalapack.F90
src_line: 236
message: |
    xgScalapack in auto mode
...


 getdim_nloc : deduce lmnmax  =  13, lnmax  =   5,
                      lmnmaxso=  24, lnmaxso=   8.
 Exchange-correlation functional for the present dataset will be:
  LDA: new Teter (4/93) with spin-polarized option - ixc=1
 Citation for XC functional:
  S. Goedecker, M. Teter, J. Huetter, PRB 54, 1703 (1996)

 Unit cell volume ucvol=  7.9610044E+01 bohr^3
 Angles (23,13,12)=  1.09471221E+02  1.09471221E+02  1.09471221E+02 degrees

 getcut: wavevector=  0.0000  0.0000  0.0000  ngfft=  30  30  30
         ecut(hartree)=     50.000   => boxcut(ratio)=   2.00790
- pspini: atom type   1  psp file is 26fe.16.hgh
- pspatm: opening atomic psp file    26fe.16.hgh
- Hartwigsen-Goedecker-Hutter psp for Fe,  from PRB58, 3641 (1998)
- 26.00000  16.00000     10605                znucl, zion, pspdat
    3    1    2    0      2001   0.00000      pspcod,pspxc,lmax,lloc,mmax,r2well
 rloc=   0.3600000
 cc1 =   5.3925070; cc2 =  -0.0300660; cc3 =   0.0000000; cc4 =   0.0000000
 rrs =   0.2692680; h11s=  10.1937230; h22s=  -6.8349820; h33s=   0.0000000
 rrp =   0.2476860; h11p=   0.1456130; h22p=  -5.2349540; h33p=   0.0000000
                    k11p=   0.2014500; k22p=  -0.0758290; k33p=   0.0000000
 rrd =   0.2230210; h11d= -12.0269410; h22d=   0.0000000; h33d=   0.0000000
                    k11d=   0.0103220; k22d=   0.0000000; k33d=   0.0000000
-  Local part computed in reciprocal space.

 pspatm : COMMENT -
  the projectors are not normalized,
  so that the KB energies are not consistent with 
  definition in PRB44, 8503 (1991). 
  However, this does not influence the results obtained hereafter.
  pspatm : epsatm=   16.92502289
         --- l  ekb(1:nproj) -->
             0   -0.500862    0.733315
             1   -0.039838    0.006202
             2   -0.004680
 pspatm: atomic psp has been read  and splines computed

   2.70800366E+02                                ecore*ucvol(ha*bohr**3)
 ==== Info on pseudopotentials ====
  Norm-conserving pseudopotentials
  Number of pseudopotentials ..    1
  Number of types of atoms   ..    1
  Calculation with spin-orbit coupling 
  Max number of channels (spin-orbit included)   5
  - Atom type    1 has spin-orbit characteristics (pspso=  0)
  Nonlocal part applied using Legendre polynomials
  Max number of non-local projectors over l and type   2
  Highest angular momentum +1 .......   3
  Max number of (l,n)   components ..   8
  Max number of (l,m,n) components ..   8

 Info on the Q-grid used for form factors in spline form: 
   Number of q-points for radial functions ffspl ..   3001
   Number of q-points for vlspl ...................   3001
   vloc is computed in Reciprocal Space
   model core charge treated in real-space

  XC functional for type 1 is 1
  Pseudo valence available: no

 symatm: atom number 1 is reached starting at atom
   1  1  1  1  1  1  1  1  1  1  1  1  1  1  1  1  1  1  1  1  1  1  1  1
   1  1  1  1  1  1  1  1  1  1  1  1  1  1  1  1  1  1  1  1  1  1  1  1
 newkpt: spin channel isppol2 =     1
 wfconv:    19 bands initialized randomly with npw=  1355, for ikpt=     1
 wfconv:    19 bands initialized randomly with npw=  1351, for ikpt=     2
 wfconv:    19 bands initialized randomly with npw=  1339, for ikpt=     3
 wfconv:    19 bands initialized randomly with npw=  1342, for ikpt=     4
 wfconv:    19 bands initialized randomly with npw=  1361, for ikpt=     5
 wfconv:    19 bands initialized randomly with npw=  1346, for ikpt=     6
 wfconv:    19 bands initialized randomly with npw=  1337, for ikpt=     7
 wfconv:    19 bands initialized randomly with npw=  1360, for ikpt=     8
 wfconv:    19 bands initialized randomly with npw=  1337, for ikpt=     9
 wfconv:    19 bands initialized randomly with npw=  1345, for ikpt=    10
 wfconv:    19 bands initialized randomly with npw=  1348, for ikpt=    11
 wfconv:    19 bands initialized randomly with npw=  1347, for ikpt=    12
 wfconv:    19 bands initialized randomly with npw=  1347, for ikpt=    13
 wfconv:    19 bands initialized randomly with npw=  1345, for ikpt=    14
 wfconv:    19 bands initialized randomly with npw=  1337, for ikpt=    15
 wfconv:    19 bands initialized randomly with npw=  1331, for ikpt=    16
 wfconv:    19 bands initialized randomly with npw=  1346, for ikpt=    17
 wfconv:    19 bands initialized randomly with npw=  1365, for ikpt=    18
 wfconv:    19 bands initialized randomly with npw=  1346, for ikpt=    19
 wfconv:    19 bands initialized randomly with npw=  1336, for ikpt=    20
 wfconv:    19 bands initialized randomly with npw=  1337, for ikpt=    21
 wfconv:    19 bands initialized randomly with npw=  1343, for ikpt=    22
 wfconv:    19 bands initialized randomly with npw=  1349, for ikpt=    23
 wfconv:    19 bands initialized randomly with npw=  1345, for ikpt=    24
 wfconv:    19 bands initialized randomly with npw=  1334, for ikpt=    25
 wfconv:    19 bands initialized randomly with npw=  1320, for ikpt=    26
 newkpt: spin channel isppol2 =     2
 wfconv:    19 bands initialized randomly with npw=  1355, for ikpt=     1
 wfconv:    19 bands initialized randomly with npw=  1351, for ikpt=     2
 wfconv:    19 bands initialized randomly with npw=  1339, for ikpt=     3
 wfconv:    19 bands initialized randomly with npw=  1342, for ikpt=     4
 wfconv:    19 bands initialized randomly with npw=  1361, for ikpt=     5
 wfconv:    19 bands initialized randomly with npw=  1346, for ikpt=     6
 wfconv:    19 bands initialized randomly with npw=  1337, for ikpt=     7
 wfconv:    19 bands initialized randomly with npw=  1360, for ikpt=     8
 wfconv:    19 bands initialized randomly with npw=  1337, for ikpt=     9
 wfconv:    19 bands initialized randomly with npw=  1345, for ikpt=    10
 wfconv:    19 bands initialized randomly with npw=  1348, for ikpt=    11
 wfconv:    19 bands initialized randomly with npw=  1347, for ikpt=    12
 wfconv:    19 bands initialized randomly with npw=  1347, for ikpt=    13
 wfconv:    19 bands initialized randomly with npw=  1345, for ikpt=    14
 wfconv:    19 bands initialized randomly with npw=  1337, for ikpt=    15
 wfconv:    19 bands initialized randomly with npw=  1331, for ikpt=    16
 wfconv:    19 bands initialized randomly with npw=  1346, for ikpt=    17
 wfconv:    19 bands initialized randomly with npw=  1365, for ikpt=    18
 wfconv:    19 bands initialized randomly with npw=  1346, for ikpt=    19
 wfconv:    19 bands initialized randomly with npw=  1336, for ikpt=    20
 wfconv:    19 bands initialized randomly with npw=  1337, for ikpt=    21
 wfconv:    19 bands initialized randomly with npw=  1343, for ikpt=    22
 wfconv:    19 bands initialized randomly with npw=  1349, for ikpt=    23
 wfconv:    19 bands initialized randomly with npw=  1345, for ikpt=    24
 wfconv:    19 bands initialized randomly with npw=  1334, for ikpt=    25
 wfconv:    19 bands initialized randomly with npw=  1320, for ikpt=    26
_setup2: Arith. and geom. avg. npw (full set) are    1343.973    1343.953
 initro: for itypat=  1, take decay length=      0.6000,
 initro: indeed, coreel=     10.0000, nval= 16 and densty=  0.0000E+00.

================================================================================

 getcut: wavevector=  0.0000  0.0000  0.0000  ngfft=  30  30  30
         ecut(hartree)=     50.000   => boxcut(ratio)=   2.00790

 1/G**2 cut-off applied in the following step : cutoff-mode = CRYSTAL

 1/G**2 cut-off applied in the following step : cutoff-mode = CRYSTAL

 1/G**2 cut-off applied in the following step : cutoff-mode = CRYSTAL

 ITER STEP NUMBER     1
 Max number of non-self-consistent loops: 2
 newocc: new Fermi energy is      -1.172909 , with nelect=     16.000000, Number of bisection calls: 49
 mkrho: echo density (plane-wave part only)
 Total charge density [el/Bohr^3]
)     Maximum=    6.4928E+00  at reduced coord.    0.8667    0.9333    0.9333
)     Minimum=    1.2742E-04  at reduced coord.    0.6333    0.3667    0.0000
   Integrated=    1.6000E+01
 Spin up density      [el/Bohr^3]
)     Maximum=    3.6727E+00  at reduced coord.    0.8667    0.9333    0.9333
)     Minimum=    7.3614E-05  at reduced coord.    0.6333    0.3667    0.0000
   Integrated=    9.0000E+00
 Spin down density    [el/Bohr^3]
)     Maximum=    2.8201E+00  at reduced coord.    0.8667    0.9333    0.9333
)     Minimum=    5.3801E-05  at reduced coord.    0.6333    0.3667    0.0000
   Integrated=    7.0000E+00
 Magnetization (spin up - spin down) [el/Bohr^3]
)     Maximum=    8.5268E-01  at reduced coord.    0.8667    0.9333    0.9333
)     Minimum=    1.9640E-05  at reduced coord.    0.5667    0.5000    0.0667
   Integrated=    2.0000E+00
 Relative magnetization (=zeta, between -1 and 1)
)     Maximum=    1.9095E-01  at reduced coord.    0.3667    0.6667    0.8333
)     Minimum=    1.1279E-02  at reduced coord.    0.0000    0.0000    0.0000
 Total charge density [el/Bohr^3]
)     Maximum=    6.4928E+00  at reduced coord.    0.8667    0.9333    0.9333
)     Minimum=    1.2742E-04  at reduced coord.    0.6333    0.3667    0.0000
   Integrated=    1.6000E+01
 Spin up density      [el/Bohr^3]
)     Maximum=    3.6727E+00  at reduced coord.    0.8667    0.9333    0.9333
)     Minimum=    7.3614E-05  at reduced coord.    0.6333    0.3667    0.0000
   Integrated=    9.0000E+00
 Spin down density    [el/Bohr^3]
)     Maximum=    2.8201E+00  at reduced coord.    0.8667    0.9333    0.9333
)     Minimum=    5.3801E-05  at reduced coord.    0.6333    0.3667    0.0000
   Integrated=    7.0000E+00
 Magnetization (spin up - spin down) [el/Bohr^3]
)     Maximum=    8.5268E-01  at reduced coord.    0.8667    0.9333    0.9333
)     Minimum=    1.9640E-05  at reduced coord.    0.5667    0.5000    0.0667
   Integrated=    2.0000E+00
 Relative magnetization (=zeta, between -1 and 1)
)     Maximum=    1.9095E-01  at reduced coord.    0.3667    0.6667    0.8333
)     Minimum=    1.1279E-02  at reduced coord.    0.0000    0.0000    0.0000

 1/G**2 cut-off applied in the following step : cutoff-mode = CRYSTAL
 ETOT  1  -111.27365414098    -1.11E+02 2.62E-01 8.54E+04 2.000
 scprqt: <Vxc>= -2.9454248E-01 hartree

 Simple mixing update:
  residual square of the potential:    53972.724140724211
{SCF_istep: 1 , Vnl|psi>: 9748 , wall_time: '  6.03 [s] '} <<< TIME

 ITER STEP NUMBER     2
 Max number of non-self-consistent loops: 2
 newocc: new Fermi energy is       1.183991 , with nelect=     16.000000, Number of bisection calls: 47
 mkrho: echo density (plane-wave part only)
 Total charge density [el/Bohr^3]
)     Maximum=    1.6562E+00  at reduced coord.    0.1000    0.9667    0.9667
)     Minimum=    2.9084E-03  at reduced coord.    0.0000    0.0000    0.0000
   Integrated=    1.6000E+01
 Spin up density      [el/Bohr^3]
)     Maximum=    8.4501E-01  at reduced coord.    0.8667    0.9667    0.9667
)     Minimum=    1.4808E-03  at reduced coord.    0.0000    0.0000    0.0000
   Integrated=    8.0678E+00
 Spin down density    [el/Bohr^3]
)     Maximum=    8.1146E-01  at reduced coord.    0.1000    0.9667    0.9667
)     Minimum=    1.4275E-03  at reduced coord.    0.0000    0.0000    0.0000
   Integrated=    7.9322E+00
 Magnetization (spin up - spin down) [el/Bohr^3]
)     Maximum=    3.5171E-02  at reduced coord.    0.0000    0.9000    0.9000
)     Minimum=   -1.3020E-03  at reduced coord.    0.7333    0.5000    0.2333
   Integrated=    1.3566E-01
 Relative magnetization (=zeta, between -1 and 1)
)     Maximum=    2.3260E-02  at reduced coord.    0.0000    0.9333    0.9333
)     Minimum=   -1.1913E-02  at reduced coord.    0.7333    0.5000    0.2333
 Total charge density [el/Bohr^3]
)     Maximum=    1.6562E+00  at reduced coord.    0.1000    0.9667    0.9667
)     Minimum=    2.9084E-03  at reduced coord.    0.0000    0.0000    0.0000
   Integrated=    1.6000E+01
 Spin up density      [el/Bohr^3]
)     Maximum=    8.4501E-01  at reduced coord.    0.8667    0.9667    0.9667
)     Minimum=    1.4808E-03  at reduced coord.    0.0000    0.0000    0.0000
   Integrated=    8.0678E+00
 Spin down density    [el/Bohr^3]
)     Maximum=    8.1146E-01  at reduced coord.    0.1000    0.9667    0.9667
)     Minimum=    1.4275E-03  at reduced coord.    0.0000    0.0000    0.0000
   Integrated=    7.9322E+00
 Magnetization (spin up - spin down) [el/Bohr^3]
)     Maximum=    3.5171E-02  at reduced coord.    0.0000    0.9000    0.9000
)     Minimum=   -1.3020E-03  at reduced coord.    0.7333    0.5000    0.2333
   Integrated=    1.3566E-01
 Relative magnetization (=zeta, between -1 and 1)
)     Maximum=    2.3260E-02  at reduced coord.    0.0000    0.9333    0.9333
)     Minimum=   -1.1913E-02  at reduced coord.    0.7333    0.5000    0.2333
 ETOT  2  -112.41120208484    -1.14E+00 3.90E-01 7.66E+04 0.136
 scprqt: <Vxc>= -6.0043371E-01 hartree

 Pulay update with  1 previous iterations:
 mixing of old trial potential: alpha(m:m-4)=  0.515      0.485
{SCF_istep: 2 , Vnl|psi>: 9225 , wall_time: '  5.57 [s] '} <<< TIME

 ITER STEP NUMBER     3
 newocc: new Fermi energy is       0.313189 , with nelect=     16.000000, Number of bisection calls: 48
 mkrho: echo density (plane-wave part only)
 Total charge density [el/Bohr^3]
)     Maximum=    3.9504E+00  at reduced coord.    0.8667    0.9667    0.9667
)     Minimum=    1.6771E-02  at reduced coord.    0.0000    0.0000    0.0000
   Integrated=    1.6000E+01
 Spin up density      [el/Bohr^3]
)     Maximum=    2.2677E+00  at reduced coord.    0.0000    0.9000    0.9000
)     Minimum=    8.4222E-03  at reduced coord.    0.0000    0.0000    0.0000
   Integrated=    8.9669E+00
 Spin down density    [el/Bohr^3]
)     Maximum=    1.7573E+00  at reduced coord.    0.8667    0.9667    0.9667
)     Minimum=    8.3493E-03  at reduced coord.    0.0000    0.0000    0.0000
   Integrated=    7.0331E+00
 Magnetization (spin up - spin down) [el/Bohr^3]
)     Maximum=    7.1844E-01  at reduced coord.    0.0000    0.9000    0.9000
)     Minimum=   -8.1020E-04  at reduced coord.    0.7333    0.4667    0.2000
   Integrated=    1.9339E+00
 Relative magnetization (=zeta, between -1 and 1)
)     Maximum=    2.3945E-01  at reduced coord.    0.0000    0.7667    0.7667
)     Minimum=   -2.6707E-02  at reduced coord.    0.6667    0.5000    0.1667
 Total charge density [el/Bohr^3]
)     Maximum=    3.9504E+00  at reduced coord.    0.8667    0.9667    0.9667
)     Minimum=    1.6771E-02  at reduced coord.    0.0000    0.0000    0.0000
   Integrated=    1.6000E+01
 Spin up density      [el/Bohr^3]
)     Maximum=    2.2677E+00  at reduced coord.    0.0000    0.9000    0.9000
)     Minimum=    8.4222E-03  at reduced coord.    0.0000    0.0000    0.0000
   Integrated=    8.9669E+00
 Spin down density    [el/Bohr^3]
)     Maximum=    1.7573E+00  at reduced coord.    0.8667    0.9667    0.9667
)     Minimum=    8.3493E-03  at reduced coord.    0.0000    0.0000    0.0000
   Integrated=    7.0331E+00
 Magnetization (spin up - spin down) [el/Bohr^3]
)     Maximum=    7.1844E-01  at reduced coord.    0.0000    0.9000    0.9000
)     Minimum=   -8.1020E-04  at reduced coord.    0.7333    0.4667    0.2000
   Integrated=    1.9339E+00
 Relative magnetization (=zeta, between -1 and 1)
)     Maximum=    2.3945E-01  at reduced coord.    0.0000    0.7667    0.7667
)     Minimum=   -2.6707E-02  at reduced coord.    0.6667    0.5000    0.1667
 ETOT  3  -122.33930927584    -9.93E+00 6.58E-01 1.56E+03 1.934
 scprqt: <Vxc>= -4.9491182E-01 hartree

 Pulay update with  2 previous iterations:
 mixing of old trial potential: alpha(m:m-4)=  0.305      0.375      0.320
{SCF_istep: 3 , Vnl|psi>: 4914 , wall_time: '  2.98 [s] '} <<< TIME

 ITER STEP NUMBER     4
 newocc: new Fermi energy is       0.439440 , with nelect=     16.000000, Number of bisection calls: 47
 mkrho: echo density (plane-wave part only)
 Total charge density [el/Bohr^3]
)     Maximum=    3.6331E+00  at reduced coord.    0.8667    0.9667    0.9667
)     Minimum=    1.5772E-02  at reduced coord.    0.0000    0.0000    0.0000
   Integrated=    1.6000E+01
 Spin up density      [el/Bohr^3]
)     Maximum=    2.1342E+00  at reduced coord.    0.0000    0.9000    0.9000
)     Minimum=    7.9182E-03  at reduced coord.    0.0000    0.0000    0.0000
   Integrated=    8.9112E+00
 Spin down density    [el/Bohr^3]
)     Maximum=    1.6392E+00  at reduced coord.    0.8667    0.9667    0.9667
)     Minimum=    7.8536E-03  at reduced coord.    0.0000    0.0000    0.0000
   Integrated=    7.0888E+00
 Magnetization (spin up - spin down) [el/Bohr^3]
)     Maximum=    6.6163E-01  at reduced coord.    0.0000    0.9000    0.9000
)     Minimum=   -1.5148E-03  at reduced coord.    0.7333    0.4667    0.2333
   Integrated=    1.8224E+00
 Relative magnetization (=zeta, between -1 and 1)
)     Maximum=    2.5200E-01  at reduced coord.    0.0000    0.7333    0.7333
)     Minimum=   -4.7791E-02  at reduced coord.    0.7333    0.4667    0.2333
 Total charge density [el/Bohr^3]
)     Maximum=    3.6331E+00  at reduced coord.    0.8667    0.9667    0.9667
)     Minimum=    1.5772E-02  at reduced coord.    0.0000    0.0000    0.0000
   Integrated=    1.6000E+01
 Spin up density      [el/Bohr^3]
)     Maximum=    2.1342E+00  at reduced coord.    0.0000    0.9000    0.9000
)     Minimum=    7.9182E-03  at reduced coord.    0.0000    0.0000    0.0000
   Integrated=    8.9112E+00
 Spin down density    [el/Bohr^3]
)     Maximum=    1.6392E+00  at reduced coord.    0.8667    0.9667    0.9667
)     Minimum=    7.8536E-03  at reduced coord.    0.0000    0.0000    0.0000
   Integrated=    7.0888E+00
 Magnetization (spin up - spin down) [el/Bohr^3]
)     Maximum=    6.6163E-01  at reduced coord.    0.0000    0.9000    0.9000
)     Minimum=   -1.5148E-03  at reduced coord.    0.7333    0.4667    0.2333
   Integrated=    1.8224E+00
 Relative magnetization (=zeta, between -1 and 1)
)     Maximum=    2.5200E-01  at reduced coord.    0.0000    0.7333    0.7333
)     Minimum=   -4.7791E-02  at reduced coord.    0.7333    0.4667    0.2333
 ETOT  4  -122.65896491659    -3.20E-01 6.52E-02 2.78E+02 1.822
 scprqt: <Vxc>= -5.0772212E-01 hartree

 Pulay update with  3 previous iterations:
 mixing of old trial potential: alpha(m:m-4)=   2.78      -1.88     -0.109E-01  0.114
{SCF_istep: 4 , Vnl|psi>: 4475 , wall_time: '  2.73 [s] '} <<< TIME

 ITER STEP NUMBER     5
 newocc: new Fermi energy is       0.341412 , with nelect=     16.000000, Number of bisection calls: 48
 mkrho: echo density (plane-wave part only)
 Total charge density [el/Bohr^3]
)     Maximum=    4.0945E+00  at reduced coord.    0.8667    0.9667    0.9667
)     Minimum=    1.9660E-02  at reduced coord.    0.0000    0.0000    0.0000
   Integrated=    1.6000E+01
 Spin up density      [el/Bohr^3]
)     Maximum=    2.3801E+00  at reduced coord.    0.0000    0.9000    0.9000
)     Minimum=    9.8089E-03  at reduced coord.    0.0000    0.0000    0.0000
   Integrated=    9.0893E+00
 Spin down density    [el/Bohr^3]
)     Maximum=    1.8022E+00  at reduced coord.    0.8667    0.9667    0.9667
)     Minimum=    9.8514E-03  at reduced coord.    0.0000    0.0000    0.0000
   Integrated=    6.9107E+00
 Magnetization (spin up - spin down) [el/Bohr^3]
)     Maximum=    8.0209E-01  at reduced coord.    0.0000    0.9000    0.9000
)     Minimum=   -1.2400E-03  at reduced coord.    0.7333    0.4667    0.2333
   Integrated=    2.1786E+00
 Relative magnetization (=zeta, between -1 and 1)
)     Maximum=    2.7589E-01  at reduced coord.    0.0000    0.7333    0.7333
)     Minimum=   -5.1742E-02  at reduced coord.    0.7333    0.4667    0.2000
 Total charge density [el/Bohr^3]
)     Maximum=    4.0945E+00  at reduced coord.    0.8667    0.9667    0.9667
)     Minimum=    1.9660E-02  at reduced coord.    0.0000    0.0000    0.0000
   Integrated=    1.6000E+01
 Spin up density      [el/Bohr^3]
)     Maximum=    2.3801E+00  at reduced coord.    0.0000    0.9000    0.9000
)     Minimum=    9.8089E-03  at reduced coord.    0.0000    0.0000    0.0000
   Integrated=    9.0893E+00
 Spin down density    [el/Bohr^3]
)     Maximum=    1.8022E+00  at reduced coord.    0.8667    0.9667    0.9667
)     Minimum=    9.8514E-03  at reduced coord.    0.0000    0.0000    0.0000
   Integrated=    6.9107E+00
 Magnetization (spin up - spin down) [el/Bohr^3]
)     Maximum=    8.0209E-01  at reduced coord.    0.0000    0.9000    0.9000
)     Minimum=   -1.2400E-03  at reduced coord.    0.7333    0.4667    0.2333
   Integrated=    2.1786E+00
 Relative magnetization (=zeta, between -1 and 1)
)     Maximum=    2.7589E-01  at reduced coord.    0.0000    0.7333    0.7333
)     Minimum=   -5.1742E-02  at reduced coord.    0.7333    0.4667    0.2000
 ETOT  5  -122.29905504256     3.60E-01 2.18E-02 2.27E+03 2.179
 scprqt: <Vxc>= -4.8533923E-01 hartree

 Pulay update with  4 previous iterations:
 mixing of old trial potential: alpha(m:m-4)=  0.667       1.29      -1.03      0.525E-01  0.174E-01
{SCF_istep: 5 , Vnl|psi>: 4428 , wall_time: '  2.70 [s] '} <<< TIME

 ITER STEP NUMBER     6
 newocc: new Fermi energy is       0.464841 , with nelect=     16.000000, Number of bisection calls: 48
 mkrho: echo density (plane-wave part only)
 Total charge density [el/Bohr^3]
)     Maximum=    3.7268E+00  at reduced coord.    0.8667    0.9333    0.9333
)     Minimum=    1.8467E-02  at reduced coord.    0.0000    0.0000    0.0000
   Integrated=    1.6000E+01
 Spin up density      [el/Bohr^3]
)     Maximum=    2.2093E+00  at reduced coord.    0.0000    0.9000    0.9000
)     Minimum=    9.2392E-03  at reduced coord.    0.0000    0.0000    0.0000
   Integrated=    8.9692E+00
 Spin down density    [el/Bohr^3]
)     Maximum=    1.6683E+00  at reduced coord.    0.8667    0.9667    0.9667
)     Minimum=    9.2274E-03  at reduced coord.    0.0000    0.0000    0.0000
   Integrated=    7.0308E+00
 Magnetization (spin up - spin down) [el/Bohr^3]
)     Maximum=    7.4558E-01  at reduced coord.    0.0000    0.9000    0.9000
)     Minimum=   -2.1632E-03  at reduced coord.    0.7333    0.4667    0.2333
   Integrated=    1.9383E+00
 Relative magnetization (=zeta, between -1 and 1)
)     Maximum=    2.8390E-01  at reduced coord.    0.0000    0.7333    0.7333
)     Minimum=   -5.9823E-02  at reduced coord.    0.7333    0.4667    0.2333
 Total charge density [el/Bohr^3]
)     Maximum=    3.7268E+00  at reduced coord.    0.8667    0.9333    0.9333
)     Minimum=    1.8467E-02  at reduced coord.    0.0000    0.0000    0.0000
   Integrated=    1.6000E+01
 Spin up density      [el/Bohr^3]
)     Maximum=    2.2093E+00  at reduced coord.    0.0000    0.9000    0.9000
)     Minimum=    9.2392E-03  at reduced coord.    0.0000    0.0000    0.0000
   Integrated=    8.9692E+00
 Spin down density    [el/Bohr^3]
)     Maximum=    1.6683E+00  at reduced coord.    0.8667    0.9667    0.9667
)     Minimum=    9.2274E-03  at reduced coord.    0.0000    0.0000    0.0000
   Integrated=    7.0308E+00
 Magnetization (spin up - spin down) [el/Bohr^3]
)     Maximum=    7.4558E-01  at reduced coord.    0.0000    0.9000    0.9000
)     Minimum=   -2.1632E-03  at reduced coord.    0.7333    0.4667    0.2333
   Integrated=    1.9383E+00
 Relative magnetization (=zeta, between -1 and 1)
)     Maximum=    2.8390E-01  at reduced coord.    0.0000    0.7333    0.7333
)     Minimum=   -5.9823E-02  at reduced coord.    0.7333    0.4667    0.2333
 ETOT  6  -122.67613300958    -3.77E-01 1.26E-02 5.06E+01 1.938
 scprqt: <Vxc>= -5.1126970E-01 hartree

 Pulay update with  5 previous iterations:
 mixing of old trial potential: alpha(m:m-4)= -0.104      0.762       1.37      -1.10      0.602E-01
{SCF_istep: 6 , Vnl|psi>: 4375 , wall_time: '  2.67 [s] '} <<< TIME

 ITER STEP NUMBER     7
 newocc: new Fermi energy is       0.439498 , with nelect=     16.000000, Number of bisection calls: 49
 mkrho: echo density (plane-wave part only)
 Total charge density [el/Bohr^3]
)     Maximum=    3.7242E+00  at reduced coord.    0.8667    0.9333    0.9333
)     Minimum=    1.8497E-02  at reduced coord.    0.0000    0.0000    0.0000
   Integrated=    1.6000E+01
 Spin up density      [el/Bohr^3]
)     Maximum=    2.2077E+00  at reduced coord.    0.0000    0.9000    0.9000
)     Minimum=    9.2567E-03  at reduced coord.    0.0000    0.0000    0.0000
   Integrated=    8.9685E+00
 Spin down density    [el/Bohr^3]
)     Maximum=    1.6674E+00  at reduced coord.    0.8667    0.9667    0.9667
)     Minimum=    9.2405E-03  at reduced coord.    0.0000    0.0000    0.0000
   Integrated=    7.0315E+00
 Magnetization (spin up - spin down) [el/Bohr^3]
)     Maximum=    7.4432E-01  at reduced coord.    0.0000    0.9000    0.9000
)     Minimum=   -2.1416E-03  at reduced coord.    0.7333    0.4667    0.2333
   Integrated=    1.9370E+00
 Relative magnetization (=zeta, between -1 and 1)
)     Maximum=    2.8378E-01  at reduced coord.    0.0000    0.7333    0.7333
)     Minimum=   -5.9167E-02  at reduced coord.    0.7333    0.4667    0.2333
 Total charge density [el/Bohr^3]
)     Maximum=    3.7242E+00  at reduced coord.    0.8667    0.9333    0.9333
)     Minimum=    1.8497E-02  at reduced coord.    0.0000    0.0000    0.0000
   Integrated=    1.6000E+01
 Spin up density      [el/Bohr^3]
)     Maximum=    2.2077E+00  at reduced coord.    0.0000    0.9000    0.9000
)     Minimum=    9.2567E-03  at reduced coord.    0.0000    0.0000    0.0000
   Integrated=    8.9685E+00
 Spin down density    [el/Bohr^3]
)     Maximum=    1.6674E+00  at reduced coord.    0.8667    0.9667    0.9667
)     Minimum=    9.2405E-03  at reduced coord.    0.0000    0.0000    0.0000
   Integrated=    7.0315E+00
 Magnetization (spin up - spin down) [el/Bohr^3]
)     Maximum=    7.4432E-01  at reduced coord.    0.0000    0.9000    0.9000
)     Minimum=   -2.1416E-03  at reduced coord.    0.7333    0.4667    0.2333
   Integrated=    1.9370E+00
 Relative magnetization (=zeta, between -1 and 1)
)     Maximum=    2.8378E-01  at reduced coord.    0.0000    0.7333    0.7333
)     Minimum=   -5.9167E-02  at reduced coord.    0.7333    0.4667    0.2333
 ETOT  7  -122.67692838276    -7.95E-04 3.30E-03 4.65E+01 1.937
 scprqt: <Vxc>= -5.1144562E-01 hartree

 Pulay update with  6 previous iterations:
 mixing of old trial potential: alpha(m:m-4)=  -11.1       12.2     -0.927E-01  0.201     -0.155
{SCF_istep: 7 , Vnl|psi>: 4571 , wall_time: '  2.78 [s] '} <<< TIME

 ITER STEP NUMBER     8
 newocc: new Fermi energy is       0.456089 , with nelect=     16.000000, Number of bisection calls: 49
 mkrho: echo density (plane-wave part only)
 Total charge density [el/Bohr^3]
)     Maximum=    3.6441E+00  at reduced coord.    0.8667    0.9333    0.9333
)     Minimum=    1.7815E-02  at reduced coord.    0.0000    0.0000    0.0000
   Integrated=    1.6000E+01
 Spin up density      [el/Bohr^3]
)     Maximum=    2.1826E+00  at reduced coord.    0.0000    0.9000    0.9000
)     Minimum=    8.9239E-03  at reduced coord.    0.0000    0.0000    0.0000
   Integrated=    8.9890E+00
 Spin down density    [el/Bohr^3]
)     Maximum=    1.6277E+00  at reduced coord.    0.8667    0.9667    0.9667
)     Minimum=    8.8914E-03  at reduced coord.    0.0000    0.0000    0.0000
   Integrated=    7.0110E+00
 Magnetization (spin up - spin down) [el/Bohr^3]
)     Maximum=    7.5304E-01  at reduced coord.    0.0000    0.9000    0.9000
)     Minimum=   -2.1527E-03  at reduced coord.    0.7333    0.5000    0.2333
   Integrated=    1.9780E+00
 Relative magnetization (=zeta, between -1 and 1)
)     Maximum=    2.9259E-01  at reduced coord.    0.0000    0.7333    0.7333
)     Minimum=   -5.6218E-02  at reduced coord.    0.7333    0.4667    0.2333
 Total charge density [el/Bohr^3]
[...]
                       0.000000  0.000000  0.000000  0.000000  0.000000  0.000000
                       0.000000
                       1.000000  1.000000  1.000000  1.000000  1.000000  1.000000
                       1.000000  1.000000  1.000000  1.000000  0.000000  0.000000
                       0.000000  0.000000  0.000000  0.000000  0.000000  0.000000
                       0.000000
                       1.000000  1.000000  1.000000  1.000000  1.000000  1.000000
                       1.000000  1.000000  1.000000  0.000000  0.000000  0.000000
                       0.000000  0.000000  0.000000  0.000000  0.000000  0.000000
                       0.000000
                       1.000000  1.000000  1.000000  1.000000  1.000000  1.000000
                       1.000000  1.000000  1.000000  0.000000  0.000000  0.000000
                       0.000000  0.000000  0.000000  0.000000  0.000000  0.000000
                       0.000000
                       1.000000  1.000000  1.000000  1.000000  1.000000  1.000000
                       1.000000  1.000000  1.000000  1.000000  0.000000  0.000000
                       0.000000  0.000000  0.000000  0.000000  0.000000  0.000000
                       0.000000
                       1.000000  1.000000  1.000000  1.000000  1.000000  1.000000
                       1.000000  1.000000  1.000000  0.000000  0.000000  0.000000
                       0.000000  0.000000  0.000000  0.000000  0.000000  0.000000
                       0.000000
                       1.000000  1.000000  1.000000  1.000000  1.000000  1.000000
                       1.000000  1.000000  1.000000  0.000000  0.000000  0.000000
                       0.000000  0.000000  0.000000  0.000000  0.000000  0.000000
                       0.000000
                       1.000000  1.000000  1.000000  1.000000  1.000000  1.000000
                       1.000000  1.000000  1.000000  1.000000  0.000000  0.000000
                       0.000000  0.000000  0.000000  0.000000  0.000000  0.000000
                       0.000000
                       1.000000  1.000000  1.000000  1.000000  1.000000  1.000000
                       1.000000  1.000000  1.000000  0.000000  0.000000  0.000000
                       0.000000  0.000000  0.000000  0.000000  0.000000  0.000000
                       0.000000
                       1.000000  1.000000  1.000000  1.000000  1.000000  1.000000
                       1.000000  1.000000  1.000000  1.000000  0.000000  0.000000
                       0.000000  0.000000  0.000000  0.000000  0.000000  0.000000
                       0.000000
                       1.000000  1.000000  1.000000  1.000000  1.000000  1.000000
                       1.000000  1.000000  1.000000  1.000000  0.000000  0.000000
                       0.000000  0.000000  0.000000  0.000000  0.000000  0.000000
                       0.000000
                       1.000000  1.000000  1.000000  1.000000  1.000000  1.000000
                       1.000000  1.000000  0.725211  0.000030  0.000000  0.000000
                       0.000000  0.000000  0.000000  0.000000  0.000000  0.000000
                       0.000000
                       1.000000  1.000000  1.000000  1.000000  1.000000  1.000000
                       1.000000  1.000000  1.000000  0.000000  0.000000  0.000000
                       0.000000  0.000000  0.000000  0.000000  0.000000  0.000000
                       0.000000
                       1.000000  1.000000  1.000000  1.000000  1.000000  1.000000
                       1.000000  1.000000  0.727786  0.000000  0.000000  0.000000
                       0.000000  0.000000  0.000000  0.000000  0.000000  0.000000
                       0.000000
                       1.000000  1.000000  1.000000  1.000000  1.000000  1.000000
                       1.000000  1.000000  0.999999  0.000000  0.000000  0.000000
                       0.000000  0.000000  0.000000  0.000000  0.000000  0.000000
                       0.000000
                       1.000000  1.000000  1.000000  1.000000  1.000000  1.000000
                       1.000000  1.000000  1.000000  0.000000  0.000000  0.000000
                       0.000000  0.000000  0.000000  0.000000  0.000000  0.000000
                       0.000000
                       1.000000  1.000000  1.000000  1.000000  1.000000  1.000000
                       1.000000  1.000000  1.000000  0.000000  0.000000  0.000000
                       0.000000  0.000000  0.000000  0.000000  0.000000  0.000000
                       0.000000
                       1.000000  1.000000  1.000000  1.000000  1.000000  1.000000
                       1.000000  1.000000  1.000000  1.000000  0.000000  0.000000
                       0.000000  0.000000  0.000000  0.000000  0.000000  0.000000
                       0.000000
                       1.000000  1.000000  1.000000  1.000000  1.000000  1.000000
                       1.000000  1.000000  1.000000  0.602747  0.000000  0.000000
                       0.000000  0.000000  0.000000  0.000000  0.000000  0.000000
                       0.000000
                       1.000000  1.000000  1.000000  1.000000  1.000000  1.000000
                       1.000000  1.000000  0.000011  0.000000  0.000000  0.000000
                       0.000000  0.000000  0.000000  0.000000  0.000000  0.000000
                       0.000000
                       1.000000  1.000000  1.000000  1.000000  1.000000  1.000000
                       1.000000  1.000000  0.978258  0.000000  0.000000  0.000000
                       0.000000  0.000000  0.000000  0.000000  0.000000  0.000000
                       0.000000
                       1.000000  1.000000  1.000000  1.000000  1.000000  1.000000
                       1.000000  1.000000  0.119151  0.000000  0.000000  0.000000
                       0.000000  0.000000  0.000000  0.000000  0.000000  0.000000
                       0.000000
                       1.000000  1.000000  1.000000  1.000000  1.000000  1.000000
                       1.000000  1.000000  1.000000  0.000000  0.000000  0.000000
                       0.000000  0.000000  0.000000  0.000000  0.000000  0.000000
                       0.000000
                       1.000000  1.000000  1.000000  1.000000  1.000000  1.000000
                       1.000000  1.000000  0.011802  0.000000  0.000000  0.000000
                       0.000000  0.000000  0.000000  0.000000  0.000000  0.000000
                       0.000000
                       1.000000  1.000000  1.000000  1.000000  1.000000  1.000000
                       1.000000  0.193700  0.193700  0.000000  0.000000  0.000000
                       0.000000  0.000000  0.000000  0.000000  0.000000  0.000000
                       0.000000
                       1.000000  1.000000  1.000000  1.000000  1.000000  1.000000
                       0.227934  0.227934  0.000112  0.000000  0.000000  0.000000
                       0.000000  0.000000  0.000000  0.000000  0.000000  0.000000
                       0.000000
                       1.000000  1.000000  1.000000  1.000000  1.000000  1.000000
                       1.000000  0.540151  0.000000  0.000000  0.000000  0.000000
                       0.000000  0.000000  0.000000  0.000000  0.000000  0.000000
                       0.000000
                       1.000000  1.000000  1.000000  1.000000  1.000000  1.000000
                       1.000000  0.000000  0.000000  0.000000  0.000000  0.000000
                       0.000000  0.000000  0.000000  0.000000  0.000000  0.000000
                       0.000000
                       1.000000  1.000000  1.000000  1.000000  1.000000  1.000000
                       1.000000  0.000000  0.000000  0.000000  0.000000  0.000000
                       0.000000  0.000000  0.000000  0.000000  0.000000  0.000000
                       0.000000
                       1.000000  1.000000  1.000000  1.000000  1.000000  1.000000
                       1.000000  0.000000  0.000000  0.000000  0.000000  0.000000
                       0.000000  0.000000  0.000000  0.000000  0.000000  0.000000
                       0.000000
                       1.000000  1.000000  1.000000  1.000000  1.000000  1.000000
                       1.000000  1.000000  0.000000  0.000000  0.000000  0.000000
                       0.000000  0.000000  0.000000  0.000000  0.000000  0.000000
                       0.000000
                       1.000000  1.000000  1.000000  1.000000  1.000000  1.000000
                       1.000000  0.000000  0.000000  0.000000  0.000000  0.000000
                       0.000000  0.000000  0.000000  0.000000  0.000000  0.000000
                       0.000000
                       1.000000  1.000000  1.000000  1.000000  1.000000  1.000000
                       1.000000  0.000000  0.000000  0.000000  0.000000  0.000000
                       0.000000  0.000000  0.000000  0.000000  0.000000  0.000000
                       0.000000
                       1.000000  1.000000  1.000000  1.000000  1.000000  1.000000
                       1.000000  0.219183  0.000000  0.000000  0.000000  0.000000
                       0.000000  0.000000  0.000000  0.000000  0.000000  0.000000
                       0.000000
                       1.000000  1.000000  1.000000  1.000000  1.000000  1.000000
                       1.000000  0.000000  0.000000  0.000000  0.000000  0.000000
                       0.000000  0.000000  0.000000  0.000000  0.000000  0.000000
                       0.000000
                       1.000000  1.000000  1.000000  1.000000  1.000000  1.000000
                       1.000000  0.000000  0.000000  0.000000  0.000000  0.000000
                       0.000000  0.000000  0.000000  0.000000  0.000000  0.000000
                       0.000000
                       1.000000  1.000000  1.000000  1.000000  1.000000  1.000000
                       1.000000  0.000000  0.000000  0.000000  0.000000  0.000000
                       0.000000  0.000000  0.000000  0.000000  0.000000  0.000000
                       0.000000
                       1.000000  1.000000  1.000000  1.000000  1.000000  1.000000
                       1.000000  0.000000  0.000000  0.000000  0.000000  0.000000
                       0.000000  0.000000  0.000000  0.000000  0.000000  0.000000
                       0.000000
                       1.000000  1.000000  1.000000  1.000000  1.000000  1.000000
                       1.000000  0.000000  0.000000  0.000000  0.000000  0.000000
                       0.000000  0.000000  0.000000  0.000000  0.000000  0.000000
                       0.000000
                       1.000000  1.000000  1.000000  1.000000  1.000000  1.000000
                       1.000000  0.000000  0.000000  0.000000  0.000000  0.000000
                       0.000000  0.000000  0.000000  0.000000  0.000000  0.000000
                       0.000000
                       1.000000  1.000000  1.000000  1.000000  1.000000  1.000000
                       1.000000  0.000000  0.000000  0.000000  0.000000  0.000000
                       0.000000  0.000000  0.000000  0.000000  0.000000  0.000000
                       0.000000
                       1.000000  1.000000  1.000000  1.000000  1.000000  1.000000
                       1.000000  0.000000  0.000000  0.000000  0.000000  0.000000
                       0.000000  0.000000  0.000000  0.000000  0.000000  0.000000
                       0.000000
                       1.000000  1.000000  1.000000  1.000000  1.000000  1.000000
                       1.000000  0.000000  0.000000  0.000000  0.000000  0.000000
                       0.000000  0.000000  0.000000  0.000000  0.000000  0.000000
                       0.000000
                       1.000000  1.000000  1.000000  1.000000  1.000000  1.000000
                       1.000000  0.998434  0.126426  0.000000  0.000000  0.000000
                       0.000000  0.000000  0.000000  0.000000  0.000000  0.000000
                       0.000000
                       1.000000  1.000000  1.000000  1.000000  1.000000  1.000000
                       1.000000  0.076616  0.000000  0.000000  0.000000  0.000000
                       0.000000  0.000000  0.000000  0.000000  0.000000  0.000000
                       0.000000
                       1.000000  1.000000  1.000000  1.000000  1.000000  1.000000
                       1.000000  0.000000  0.000000  0.000000  0.000000  0.000000
                       0.000000  0.000000  0.000000  0.000000  0.000000  0.000000
                       0.000000
                       1.000000  1.000000  1.000000  1.000000  1.000000  1.000000
                       1.000000  0.000000  0.000000  0.000000  0.000000  0.000000
                       0.000000  0.000000  0.000000  0.000000  0.000000  0.000000
                       0.000000
                       1.000000  1.000000  1.000000  1.000000  1.000000  1.000000
                       1.000000  0.000000  0.000000  0.000000  0.000000  0.000000
                       0.000000  0.000000  0.000000  0.000000  0.000000  0.000000
                       0.000000
                       1.000000  1.000000  1.000000  1.000000  1.000000  1.000000
                       0.002951  0.002951  0.000000  0.000000  0.000000  0.000000
                       0.000000  0.000000  0.000000  0.000000  0.000000  0.000000
                       0.000000
                       1.000000  1.000000  1.000000  1.000000  1.000000  1.000000
                       0.000002  0.000000  0.000000  0.000000  0.000000  0.000000
                       0.000000  0.000000  0.000000  0.000000  0.000000  0.000000
                       0.000000
                       1.000000  1.000000  1.000000  1.000000  1.000000  1.000000
                       0.000000  0.000000  0.000000  0.000000  0.000000  0.000000
                       0.000000  0.000000  0.000000  0.000000  0.000000  0.000000
                       0.000000
                       1.000000  1.000000  1.000000  1.000000  1.000000  1.000000
                       0.000000  0.000000  0.000000  0.000000  0.000000  0.000000
                       0.000000  0.000000  0.000000  0.000000  0.000000  0.000000
                       0.000000
           occopt           7
          prtkbff           1
            rprim     -5.0000000000E-01  5.0000000000E-01  5.0000000000E-01
                       5.0000000000E-01 -5.0000000000E-01  5.0000000000E-01
                       5.0000000000E-01  5.0000000000E-01 -5.0000000000E-01
           shiftk      5.00000000E-01  5.00000000E-01  5.00000000E-01
           so_psp           0
          spgroup         229
           spinat      0.0000000000E+00  0.0000000000E+00  5.0000000000E+00
           strten1     2.6706148275E-02  2.6706148275E-02  2.6706148275E-02
                       0.0000000000E+00  0.0000000000E+00  0.0000000000E+00
        symmorphi1          1
        symmorphi2          0
        symmorphi3          1
        symmorphi4          1
        symmorphi5          1
        symmorphi6          1
           symrel      1  0  0   0  1  0   0  0  1      -1  0  0   0 -1  0   0  0 -1
                      -1 -1 -1   0  0  1   0  1  0       1  1  1   0  0 -1   0 -1  0
                       0  1  0   1  0  0  -1 -1 -1       0 -1  0  -1  0  0   1  1  1
                       0  0  1  -1 -1 -1   1  0  0       0  0 -1   1  1  1  -1  0  0
                       0  1  0   1  0  0   0  0  1       0 -1  0  -1  0  0   0  0 -1
                      -1 -1 -1   0  0  1   1  0  0       1  1  1   0  0 -1  -1  0  0
                       1  0  0   0  1  0  -1 -1 -1      -1  0  0   0 -1  0   1  1  1
                       0  0  1  -1 -1 -1   0  1  0       0  0 -1   1  1  1   0 -1  0
                      -1 -1 -1   1  0  0   0  0  1       1  1  1  -1  0  0   0  0 -1
                       0  1  0   0  0  1   1  0  0       0 -1  0   0  0 -1  -1  0  0
                       1  0  0  -1 -1 -1   0  1  0      -1  0  0   1  1  1   0 -1  0
                       0  0  1   0  1  0  -1 -1 -1       0  0 -1   0 -1  0   1  1  1
                       1  0  0  -1 -1 -1   0  0  1      -1  0  0   1  1  1   0  0 -1
                       0  1  0   0  0  1  -1 -1 -1       0 -1  0   0  0 -1   1  1  1
                      -1 -1 -1   1  0  0   0  1  0       1  1  1  -1  0  0   0 -1  0
                       0  0  1   0  1  0   1  0  0       0  0 -1   0 -1  0  -1  0  0
                       0  1  0  -1 -1 -1   0  0  1       0 -1  0   1  1  1   0  0 -1
                       1  0  0   0  0  1  -1 -1 -1      -1  0  0   0  0 -1   1  1  1
                      -1 -1 -1   0  1  0   1  0  0       1  1  1   0 -1  0  -1  0  0
                       0  0  1   1  0  0   0  1  0       0  0 -1  -1  0  0   0 -1  0
                      -1 -1 -1   0  1  0   0  0  1       1  1  1   0 -1  0   0  0 -1
                       1  0  0   0  0  1   0  1  0      -1  0  0   0  0 -1   0 -1  0
                       0  1  0  -1 -1 -1   1  0  0       0 -1  0   1  1  1  -1  0  0
                       0  0  1   1  0  0  -1 -1 -1       0  0 -1  -1  0  0   1  1  1
           toldfe1     1.00000000E-10 Hartree
           toldfe2     0.00000000E+00 Hartree
           toldfe3     0.00000000E+00 Hartree
           toldfe4     0.00000000E+00 Hartree
           toldfe5     0.00000000E+00 Hartree
           toldfe6     0.00000000E+00 Hartree
           tolwfr1     0.00000000E+00
           tolwfr2     1.00000000E-16
           tolwfr3     1.00000000E-16
           tolwfr4     1.00000000E-16
           tolwfr5     1.00000000E-16
           tolwfr6     1.00000000E-16
           tsmear      5.00000000E-03 Hartree
            typat      1
              wtk1       0.01563    0.04688    0.04688    0.02344    0.01172    0.04688
                         0.09375    0.04688    0.01563    0.04688    0.04688    0.04688
                         0.09375    0.04688    0.04688    0.01563    0.02344    0.01172
                         0.04688    0.04688    0.04688    0.04688    0.01172    0.04688
                         0.01563    0.01172
              wtk2       0.12500    0.18750    0.09375    0.37500    0.12500    0.09375
              wtk3       1.00000    1.00000    1.00000    1.00000    1.00000    1.00000
              wtk4       1.00000    1.00000    1.00000    1.00000    1.00000    1.00000
              wtk5       1.00000    1.00000    1.00000    1.00000    1.00000    1.00000
              wtk6       0.00195    0.00586    0.00586    0.00586    0.00586    0.00586
                         0.00586    0.00293    0.00146    0.00586    0.01172    0.01172
                         0.01172    0.01172    0.01172    0.00586    0.00586    0.01172
                         0.01172    0.01172    0.00586    0.00586    0.00586    0.00586
                         0.01172    0.01172    0.00586    0.01172    0.00586    0.00586
                         0.00586    0.01172    0.00586    0.00586    0.01172    0.01172
                         0.00586    0.01172    0.01172    0.00586    0.00586    0.01172
                         0.01172    0.01172    0.00586    0.01172    0.01172    0.00586
                         0.00586    0.01172
                       outvars : Printing only first  50 k-points.
            znucl       26.00000

================================================================================
  
 Proc.   0 individual time (sec): cpu=        146.1  wall=        156.5

 Calculation completed.
.Delivered  15 WARNINGs and  21 COMMENTs to log file.

--- !FinalSummary
program: abinit
version: 9.7.4
start_datetime: Sun Feb 11 11:27:32 2024
end_datetime: Sun Feb 11 11:30:08 2024
overall_cpu_time:         146.1
overall_wall_time:         156.5
exit_requested_by_user: no 
timelimit: 0
pseudos: 
    Fe  : 6b3c50496c2bd51adb58e401ac55969f
usepaw: 0
mpi_procs: 1
omp_threads: 1
num_warnings: 15
num_comments: 21
...
