  ABINIT 9.7.4
  
 DeprecationWarning: 

     The files file has been deprecated in Abinit9 and will be removed in Abinit10.
     Use the syntax `abinit t01.abi` where t01.abi is an input with pseudopotentials e.g.

            pseudos = "al.psp8, as.psp8"


  Give name for formatted input file: 
Fe_withSO.in
  Give name for formatted output file:
Fe_e50_k4_withSO.out
  Give root name for generic input files:
Fe_e50_k4_withSO.i
  Give root name for generic output files:
Fe_e50_k4_withSO.o
  Give root name for generic temporary files:
Fe_e50_k4_withSO.tmp

.Version 9.7.4 of ABINIT 
.(MPI version, prepared for a x86_64_linux_gnu9.4 computer) 

.Copyright (C) 1998-2022 ABINIT group . 
 ABINIT comes with ABSOLUTELY NO WARRANTY.
 It is free software, and you are welcome to redistribute it
 under certain conditions (GNU General Public License,
 see ~abinit/COPYING or http://www.gnu.org/copyleft/gpl.txt).

 ABINIT is a project of the Universite Catholique de Louvain,
 Corning Inc. and other collaborators, see ~abinit/doc/developers/contributors.txt .
 Please read https://docs.abinit.org/theory/acknowledgments for suggested
 acknowledgments of the ABINIT effort.
 For more information, see https://www.abinit.org .

.Starting date : Sun 11 Feb 2024.
- ( at 22h42 )
  

 ++++++++++++++++++++++++++++++++++++++++++++++++++++++++++++++++++++++++++++++

 === Build Information === 
  Version       : 9.7.4
  Build target  : x86_64_linux_gnu9.4
  Build date    : 20220527

 === Compiler Suite === 
  C compiler       : gnu9.4
  C++ compiler     : gnu9.4
  Fortran compiler : gnu9.4
  CFLAGS           : -g -O2
  CXXFLAGS         : -g -O2 -mtune=native -march=native
  FCFLAGS          : -g -ffree-line-length-none  -fopenmp   -I/data/shared/yambo-libs/de ...
  FC_LDFLAGS       : 

 === Optimizations === 
  Debug level        : basic
  Optimization level : standard
  Architecture       : unknown_unknown

 === Multicore === 
  Parallel build : yes
  Parallel I/O   : yes
  openMP support : yes
  GPU support    : 

 === Connectors / Fallbacks === 
  LINALG flavor  : netlib
  FFT flavor     : goedecker
  HDF5           : yes
  NetCDF         : yes
  NetCDF Fortran : yes
  LibXC          : yes
  Wannier90      : no

 === Experimental features === 
  Exports             : 
  GW double-precision : 

 ++++++++++++++++++++++++++++++++++++++++++++++++++++++++++++++++++++++++++++++


 ++++++++++++++++++++++++++++++++++++++++++++++++++++++++++++++++++++++++++++++
 Default optimizations:
   -O2 -mtune=native -march=native


 Optimizations for 43_ptgroups:
   -O0


 ++++++++++++++++++++++++++++++++++++++++++++++++++++++++++++++++++++++++++++++


 ++++++++++++++++++++++++++++++++++++++++++++++++++++++++++++++++++++++++++++++
 CPP options activated during the build:

                    CC_GNU                   CXX_GNU                    FC_GNU
 
 HAVE_FC_ALLOCATABLE_DT...             HAVE_FC_ASYNC         HAVE_FC_BACKTRACE
 
  HAVE_FC_COMMAND_ARGUMENT      HAVE_FC_COMMAND_LINE        HAVE_FC_CONTIGUOUS
 
           HAVE_FC_CPUTIME              HAVE_FC_EXIT             HAVE_FC_FLUSH
 
             HAVE_FC_GAMMA            HAVE_FC_GETENV   HAVE_FC_IEEE_ARITHMETIC
 
   HAVE_FC_IEEE_EXCEPTIONS          HAVE_FC_INT_QUAD             HAVE_FC_IOMSG
 
     HAVE_FC_ISO_C_BINDING  HAVE_FC_ISO_FORTRAN_2008        HAVE_FC_LONG_LINES
 
        HAVE_FC_MOVE_ALLOC  HAVE_FC_ON_THE_FLY_SHAPE           HAVE_FC_PRIVATE
 
         HAVE_FC_PROTECTED           HAVE_FC_SHIFTLR         HAVE_FC_STREAM_IO
 
            HAVE_FC_SYSTEM          HAVE_FORTRAN2003                 HAVE_HDF5
 
             HAVE_HDF5_MPI        HAVE_LIBPAW_ABINIT      HAVE_LIBTETRA_ABINIT
 
                HAVE_LIBXC                  HAVE_MPI                 HAVE_MPI2
 
       HAVE_MPI_IALLGATHER       HAVE_MPI_IALLREDUCE        HAVE_MPI_IALLTOALL
 
       HAVE_MPI_IALLTOALLV           HAVE_MPI_IBCAST         HAVE_MPI_IGATHERV
 
        HAVE_MPI_INTEGER16               HAVE_MPI_IO HAVE_MPI_TYPE_CREATE_S...
 
               HAVE_NETCDF       HAVE_NETCDF_FORTRAN   HAVE_NETCDF_FORTRAN_MPI
 
           HAVE_NETCDF_MPI                HAVE_NUMPY         HAVE_OMP_COLLAPSE
 
               HAVE_OPENMP             HAVE_OS_LINUX         HAVE_TIMER_ABINIT
 
 ++++++++++++++++++++++++++++++++++++++++++++++++++++++++++++++++++++++++++++++

- input  file    -> Fe_withSO.in
- output file    -> Fe_e50_k4_withSO.out
- root for input  files -> Fe_e50_k4_withSO.i
- root for output files -> Fe_e50_k4_withSO.o

 Netcdf library supports MPI-IO
-instrng: 69 lines of input have been read from file Fe_withSO.in


 Please give name of formatted atomic psp file (and finish with a newline character)
 For atom type 1, psp file is 26fe.16.hgh
  read the values zionpsp= 16.0 , pspcod=   3 , lmax=   2

 inpspheads: deduce mpsang = 3, n1xccc = 0.

======================================================= 
 invars1m : enter jdtset= 1

 symlatt: the Bravais lattice is cI (body-centered cubic)
  xred   is defined in input file
 ingeo: takes atomic coordinates from input array xred

--- !COMMENT
src_file: m_ingeo.F90
src_line: 900
message: |
    The tolerance on symmetries =   1.000E-05 is bigger than 1.0e-8.
    In order to avoid spurious effects, the atomic coordinates have been
    symmetrized before storing them in the dataset internal variable.
    So, do not be surprised by the fact that your input variables (xcart, xred, ...)
    do not correspond exactly to the ones echoed by ABINIT, the latter being used to do the calculations.
    This is not a problem per se.
    Still, in order to avoid this symmetrization (e.g. for specific debugging/development), decrease tolsym to 1.0e-8 or lower,
    or (much preferred) use input primitive vectors that are accurate to better than 1.0e-8.
    This message will only be printed once, even if there are other datasets where tolsym is bigger than 1.0e-8.
...


 symlatt: the Bravais lattice is cI (body-centered cubic)
 Shubnikov space group type III

 symlatt: the Bravais lattice is cI (body-centered cubic)

--- !COMMENT
src_file: m_symfind.F90
src_line: 1020
message: |
    The Bravais lattice determined only from the primitive
    vectors, bravais(1)=  7, is more symmetric
    than the real one, iholohedry=  4, obtained by taking into
    account the atomic positions. Start deforming the primitive vector set.
...


 symlatt: the Bravais lattice is tI (body-centered tetragonal)
 symspgr: spgroup= 139  I4/m m m   (=D4h^17)
 symspgr: optical characteristics = uniaxial
 Optical axis (in reduced coordinates, real space ) :  -1  -1   0

======================================================= 
 invars1m : enter jdtset= 2

 symlatt: the Bravais lattice is cI (body-centered cubic)
  xred   is defined in input file
 ingeo: takes atomic coordinates from input array xred

 symlatt: the Bravais lattice is cI (body-centered cubic)
 Shubnikov space group type III

 symlatt: the Bravais lattice is cI (body-centered cubic)

--- !COMMENT
src_file: m_symfind.F90
src_line: 1020
message: |
    The Bravais lattice determined only from the primitive
    vectors, bravais(1)=  7, is more symmetric
    than the real one, iholohedry=  4, obtained by taking into
    account the atomic positions. Start deforming the primitive vector set.
...


 symlatt: the Bravais lattice is tI (body-centered tetragonal)
 symspgr: spgroup= 139  I4/m m m   (=D4h^17)
 symspgr: optical characteristics = uniaxial
 Optical axis (in reduced coordinates, real space ) :  -1  -1   0
 invars2: read the value of fband=  2.00000000E+00 from input file.
 For input ecut=  5.000000E+01 best grid ngfft=      30      30      30
       max ecut=  5.039558E+01

 ==== FFT mesh ====
  FFT mesh divisions ........................    30   30   30
  Augmented FFT divisions ...................    31   31   30
  FFT algorithm .............................   112
  FFT cache size ............................    16
 getmpw: optimal value of mpw= 1365
 For input ecut=  5.000000E+01 best grid ngfft=      30      30      30
       max ecut=  5.039558E+01

 ==== FFT mesh ====
  FFT mesh divisions ........................    30   30   30
  Augmented FFT divisions ...................    31   31   30
  FFT algorithm .............................   112
  FFT cache size ............................    16
 getmpw: optimal value of mpw= 1358

 DATASET    1 : magnetic group, Shubnikov type III
 Fedorov space group I4/m m m (#139); Bravais tI (body-center tetrag.)
 Magnetic point group 4/m'mm (# 26)

 getdim_nloc : deduce lmnmax  =  13, lnmax  =   5,
                      lmnmaxso=  24, lnmaxso=   8.
memory: analysis of memory needs
================================================================================
 Values of the parameters that define the memory need for DATASET  1.
     intxc =       0    ionmov =       0      iscf =       7    lmnmax =       8
     lnmax =       8     mgfft =      30  mpssoang =       5    mqgrid =    3001
     natom =       1  nloc_mem =       1    nspden =       4   nspinor =       2
    nsppol =       1      nsym =      16    n1xccc =       0    ntypat =       1
    occopt =       7   xclevel =       1
-    mband =          20        mffmem =           1         mkmem =          56
       mpw =        1365          nfft =       27000          nkpt =          56
================================================================================
P This job should need less than                      70.770 Mbytes of memory.
  Rough estimation (10% accuracy) of disk space for files :
_ WF disk file :     23.330 Mbytes ; DEN or POT disk file :      0.208 Mbytes.
================================================================================

 Biggest array : cg(disk), with     23.3296 MBytes.
 memana : allocated an array of     23.330 Mbytes, for testing purposes.
 memana: allocated      70.770Mbytes, for testing purposes. 
 The job will continue.

 DATASET    2 : magnetic group, Shubnikov type III
 Fedorov space group I4/m m m (#139); Bravais tI (body-center tetrag.)
 Magnetic point group 4/m'mm (# 26)

 getdim_nloc : deduce lmnmax  =  13, lnmax  =   5,
                      lmnmaxso=  24, lnmaxso=   8.
memory: analysis of memory needs
================================================================================
 Values of the parameters that define the memory need for DATASET  2.
     intxc =       0    ionmov =       0      iscf =      -2    lmnmax =       8
     lnmax =       8     mgfft =      30  mpssoang =       5    mqgrid =    3001
     natom =       1  nloc_mem =       1    nspden =       4   nspinor =       2
    nsppol =       1      nsym =      16    n1xccc =       0    ntypat =       1
    occopt =       7   xclevel =       1
-    mband =          30        mffmem =           1         mkmem =          11
       mpw =        1358          nfft =       27000          nkpt =          11
================================================================================
P This job should need less than                      23.812 Mbytes of memory.
  Rough estimation (10% accuracy) of disk space for files :
_ WF disk file :      6.840 Mbytes ; DEN or POT disk file :      0.208 Mbytes.
================================================================================

 Biggest array : cg(disk), with      6.8401 MBytes.
 memana : allocated an array of      6.840 Mbytes, for testing purposes.
 memana: allocated      23.812Mbytes, for testing purposes. 
 The job will continue.
--------------------------------------------------------------------------------
------------- Echo of variables that govern the present computation ------------
--------------------------------------------------------------------------------
-
- outvars: echo of selected default values                                      
-   iomode0 =  0 , fftalg0 =112 , wfoptalg0 =  0
-
- outvars: echo of global parameters not present in the input file              
-  max_nthreads =    1
-
 -outvars: echo values of preprocessed input variables --------
 
 These variables are accessible in NetCDF format (Fe_e50_k4_withSO.o_OUT.nc)

-          iomode           3
            acell      5.4200000000E+00  5.4200000000E+00  5.4200000000E+00 Bohr
              amu      5.58470000E+01
             ecut      5.00000000E+01 Hartree
           enunit           1
-          fftalg         112
           getden1          0
           getden2          1
             iscf1          7
             iscf2         -2
           jdtset        1    2
              kpt1     6.25000000E-02  6.25000000E-02  6.25000000E-02
                       1.87500000E-01  6.25000000E-02  6.25000000E-02
                       3.12500000E-01  6.25000000E-02  6.25000000E-02
                       4.37500000E-01  6.25000000E-02  6.25000000E-02
                      -6.25000000E-02  6.25000000E-02  6.25000000E-02
                       1.87500000E-01  1.87500000E-01  6.25000000E-02
                       3.12500000E-01  1.87500000E-01  6.25000000E-02
                       4.37500000E-01  1.87500000E-01  6.25000000E-02
                      -4.37500000E-01  1.87500000E-01  6.25000000E-02
                      -3.12500000E-01  1.87500000E-01  6.25000000E-02
                      -1.87500000E-01  1.87500000E-01  6.25000000E-02
                      -6.25000000E-02  1.87500000E-01  6.25000000E-02
                       3.12500000E-01  3.12500000E-01  6.25000000E-02
                       4.37500000E-01  3.12500000E-01  6.25000000E-02
                      -4.37500000E-01  3.12500000E-01  6.25000000E-02
                      -3.12500000E-01  3.12500000E-01  6.25000000E-02
                      -1.87500000E-01  3.12500000E-01  6.25000000E-02
                      -6.25000000E-02  3.12500000E-01  6.25000000E-02
                       4.37500000E-01  4.37500000E-01  6.25000000E-02
                      -4.37500000E-01  4.37500000E-01  6.25000000E-02
                      -3.12500000E-01  4.37500000E-01  6.25000000E-02
                      -1.87500000E-01  4.37500000E-01  6.25000000E-02
                      -6.25000000E-02  4.37500000E-01  6.25000000E-02
                      -4.37500000E-01 -4.37500000E-01  6.25000000E-02
                      -3.12500000E-01 -4.37500000E-01  6.25000000E-02
                      -1.87500000E-01 -4.37500000E-01  6.25000000E-02
                      -6.25000000E-02 -4.37500000E-01  6.25000000E-02
                      -3.12500000E-01 -3.12500000E-01  6.25000000E-02
                      -1.87500000E-01 -3.12500000E-01  6.25000000E-02
                      -6.25000000E-02 -3.12500000E-01  6.25000000E-02
                      -1.87500000E-01 -1.87500000E-01  6.25000000E-02
                      -6.25000000E-02 -1.87500000E-01  6.25000000E-02
                      -6.25000000E-02 -6.25000000E-02  6.25000000E-02
                       1.87500000E-01  1.87500000E-01  1.87500000E-01
                       3.12500000E-01  1.87500000E-01  1.87500000E-01
                      -1.87500000E-01  1.87500000E-01  1.87500000E-01
                       3.12500000E-01  3.12500000E-01  1.87500000E-01
                      -3.12500000E-01  3.12500000E-01  1.87500000E-01
                      -1.87500000E-01  3.12500000E-01  1.87500000E-01
                      -4.37500000E-01  4.37500000E-01  1.87500000E-01
                      -3.12500000E-01  4.37500000E-01  1.87500000E-01
                      -1.87500000E-01  4.37500000E-01  1.87500000E-01
                      -4.37500000E-01 -4.37500000E-01  1.87500000E-01
                      -3.12500000E-01 -4.37500000E-01  1.87500000E-01
                      -1.87500000E-01 -4.37500000E-01  1.87500000E-01
                      -3.12500000E-01 -3.12500000E-01  1.87500000E-01
                      -1.87500000E-01 -3.12500000E-01  1.87500000E-01
                      -1.87500000E-01 -1.87500000E-01  1.87500000E-01
                      -3.12500000E-01  3.12500000E-01  3.12500000E-01
                      -4.37500000E-01  4.37500000E-01  3.12500000E-01
              kpt2     1.25000000E-01  1.25000000E-01  1.25000000E-01
                       3.75000000E-01  1.25000000E-01  1.25000000E-01
                      -1.25000000E-01  1.25000000E-01  1.25000000E-01
                       3.75000000E-01  3.75000000E-01  1.25000000E-01
                      -3.75000000E-01  3.75000000E-01  1.25000000E-01
                      -1.25000000E-01  3.75000000E-01  1.25000000E-01
                      -3.75000000E-01 -3.75000000E-01  1.25000000E-01
                      -1.25000000E-01 -3.75000000E-01  1.25000000E-01
                      -1.25000000E-01 -1.25000000E-01  1.25000000E-01
                      -3.75000000E-01  3.75000000E-01  3.75000000E-01
                      -3.75000000E-01 -3.75000000E-01  3.75000000E-01
                       outvar_i_n : Printing only first  50 k-points.
           kptopt           4
         kptrlatt1       8    0    0      0    8    0      0    0    8
         kptrlatt2       4    0    0      0    4    0      0    0    4
          kptrlen1     3.75508615E+01
          kptrlen2     1.87754308E+01
          kssform1          1
          kssform2          3
P           mkmem1         56
P           mkmem2         11
            natom           1
            nband1         20
            nband2         30
         nbandkss1          0
         nbandkss2         26
           nbdbuf1          0
           nbdbuf2         10
           ndtset           2
            ngfft          30      30      30
             nkpt1         56
             nkpt2         11
           nspden           4
          nspinor           2
            nstep1        100
            nstep2        300
             nsym          16
           ntypat           1
              occ      1.000000  1.000000  1.000000  1.000000  1.000000  1.000000
                       1.000000  1.000000  1.000000  1.000000  1.000000  1.000000
                       1.000000  1.000000  1.000000  1.000000  0.000000  0.000000
                       0.000000  0.000000
                       1.000000  1.000000  1.000000  1.000000  1.000000  1.000000
                       1.000000  1.000000  1.000000  1.000000  1.000000  1.000000
                       1.000000  1.000000  1.000000  1.000000  0.000000  0.000000
                       0.000000  0.000000
                       1.000000  1.000000  1.000000  1.000000  1.000000  1.000000
                       1.000000  1.000000  1.000000  1.000000  1.000000  1.000000
                       1.000000  1.000000  1.000000  1.000000  0.000000  0.000000
                       0.000000  0.000000
                       1.000000  1.000000  1.000000  1.000000  1.000000  1.000000
                       1.000000  1.000000  1.000000  1.000000  1.000000  1.000000
                       1.000000  1.000000  1.000000  1.000000  0.000000  0.000000
                       0.000000  0.000000
                       1.000000  1.000000  1.000000  1.000000  1.000000  1.000000
                       1.000000  1.000000  1.000000  1.000000  1.000000  1.000000
                       1.000000  1.000000  1.000000  1.000000  0.000000  0.000000
                       0.000000  0.000000
                       1.000000  1.000000  1.000000  1.000000  1.000000  1.000000
                       1.000000  1.000000  1.000000  1.000000  1.000000  1.000000
                       1.000000  1.000000  1.000000  1.000000  0.000000  0.000000
                       0.000000  0.000000
                       1.000000  1.000000  1.000000  1.000000  1.000000  1.000000
                       1.000000  1.000000  1.000000  1.000000  1.000000  1.000000
                       1.000000  1.000000  1.000000  1.000000  0.000000  0.000000
                       0.000000  0.000000
                       1.000000  1.000000  1.000000  1.000000  1.000000  1.000000
                       1.000000  1.000000  1.000000  1.000000  1.000000  1.000000
                       1.000000  1.000000  1.000000  1.000000  0.000000  0.000000
                       0.000000  0.000000
                       1.000000  1.000000  1.000000  1.000000  1.000000  1.000000
                       1.000000  1.000000  1.000000  1.000000  1.000000  1.000000
                       1.000000  1.000000  1.000000  1.000000  0.000000  0.000000
                       0.000000  0.000000
                       1.000000  1.000000  1.000000  1.000000  1.000000  1.000000
                       1.000000  1.000000  1.000000  1.000000  1.000000  1.000000
                       1.000000  1.000000  1.000000  1.000000  0.000000  0.000000
                       0.000000  0.000000
                       1.000000  1.000000  1.000000  1.000000  1.000000  1.000000
                       1.000000  1.000000  1.000000  1.000000  1.000000  1.000000
                       1.000000  1.000000  1.000000  1.000000  0.000000  0.000000
                       0.000000  0.000000
                       1.000000  1.000000  1.000000  1.000000  1.000000  1.000000
                       1.000000  1.000000  1.000000  1.000000  1.000000  1.000000
                       1.000000  1.000000  1.000000  1.000000  0.000000  0.000000
                       0.000000  0.000000
                       1.000000  1.000000  1.000000  1.000000  1.000000  1.000000
                       1.000000  1.000000  1.000000  1.000000  1.000000  1.000000
                       1.000000  1.000000  1.000000  1.000000  0.000000  0.000000
                       0.000000  0.000000
                       1.000000  1.000000  1.000000  1.000000  1.000000  1.000000
                       1.000000  1.000000  1.000000  1.000000  1.000000  1.000000
                       1.000000  1.000000  1.000000  1.000000  0.000000  0.000000
                       0.000000  0.000000
                       1.000000  1.000000  1.000000  1.000000  1.000000  1.000000
                       1.000000  1.000000  1.000000  1.000000  1.000000  1.000000
                       1.000000  1.000000  1.000000  1.000000  0.000000  0.000000
                       0.000000  0.000000
                       1.000000  1.000000  1.000000  1.000000  1.000000  1.000000
                       1.000000  1.000000  1.000000  1.000000  1.000000  1.000000
                       1.000000  1.000000  1.000000  1.000000  0.000000  0.000000
                       0.000000  0.000000
                       1.000000  1.000000  1.000000  1.000000  1.000000  1.000000
                       1.000000  1.000000  1.000000  1.000000  1.000000  1.000000
                       1.000000  1.000000  1.000000  1.000000  0.000000  0.000000
                       0.000000  0.000000
                       1.000000  1.000000  1.000000  1.000000  1.000000  1.000000
                       1.000000  1.000000  1.000000  1.000000  1.000000  1.000000
                       1.000000  1.000000  1.000000  1.000000  0.000000  0.000000
                       0.000000  0.000000
                       1.000000  1.000000  1.000000  1.000000  1.000000  1.000000
                       1.000000  1.000000  1.000000  1.000000  1.000000  1.000000
                       1.000000  1.000000  1.000000  1.000000  0.000000  0.000000
                       0.000000  0.000000
                       1.000000  1.000000  1.000000  1.000000  1.000000  1.000000
                       1.000000  1.000000  1.000000  1.000000  1.000000  1.000000
                       1.000000  1.000000  1.000000  1.000000  0.000000  0.000000
                       0.000000  0.000000
                       1.000000  1.000000  1.000000  1.000000  1.000000  1.000000
                       1.000000  1.000000  1.000000  1.000000  1.000000  1.000000
                       1.000000  1.000000  1.000000  1.000000  0.000000  0.000000
                       0.000000  0.000000
                       1.000000  1.000000  1.000000  1.000000  1.000000  1.000000
                       1.000000  1.000000  1.000000  1.000000  1.000000  1.000000
                       1.000000  1.000000  1.000000  1.000000  0.000000  0.000000
                       0.000000  0.000000
                       1.000000  1.000000  1.000000  1.000000  1.000000  1.000000
                       1.000000  1.000000  1.000000  1.000000  1.000000  1.000000
                       1.000000  1.000000  1.000000  1.000000  0.000000  0.000000
                       0.000000  0.000000
                       1.000000  1.000000  1.000000  1.000000  1.000000  1.000000
                       1.000000  1.000000  1.000000  1.000000  1.000000  1.000000
                       1.000000  1.000000  1.000000  1.000000  0.000000  0.000000
                       0.000000  0.000000
                       1.000000  1.000000  1.000000  1.000000  1.000000  1.000000
                       1.000000  1.000000  1.000000  1.000000  1.000000  1.000000
                       1.000000  1.000000  1.000000  1.000000  0.000000  0.000000
                       0.000000  0.000000
                       1.000000  1.000000  1.000000  1.000000  1.000000  1.000000
                       1.000000  1.000000  1.000000  1.000000  1.000000  1.000000
                       1.000000  1.000000  1.000000  1.000000  0.000000  0.000000
                       0.000000  0.000000
                       1.000000  1.000000  1.000000  1.000000  1.000000  1.000000
                       1.000000  1.000000  1.000000  1.000000  1.000000  1.000000
                       1.000000  1.000000  1.000000  1.000000  0.000000  0.000000
                       0.000000  0.000000
                       1.000000  1.000000  1.000000  1.000000  1.000000  1.000000
                       1.000000  1.000000  1.000000  1.000000  1.000000  1.000000
                       1.000000  1.000000  1.000000  1.000000  0.000000  0.000000
                       0.000000  0.000000
                       1.000000  1.000000  1.000000  1.000000  1.000000  1.000000
                       1.000000  1.000000  1.000000  1.000000  1.000000  1.000000
                       1.000000  1.000000  1.000000  1.000000  0.000000  0.000000
                       0.000000  0.000000
                       1.000000  1.000000  1.000000  1.000000  1.000000  1.000000
                       1.000000  1.000000  1.000000  1.000000  1.000000  1.000000
                       1.000000  1.000000  1.000000  1.000000  0.000000  0.000000
                       0.000000  0.000000
                       1.000000  1.000000  1.000000  1.000000  1.000000  1.000000
                       1.000000  1.000000  1.000000  1.000000  1.000000  1.000000
                       1.000000  1.000000  1.000000  1.000000  0.000000  0.000000
                       0.000000  0.000000
                       1.000000  1.000000  1.000000  1.000000  1.000000  1.000000
                       1.000000  1.000000  1.000000  1.000000  1.000000  1.000000
                       1.000000  1.000000  1.000000  1.000000  0.000000  0.000000
                       0.000000  0.000000
                       1.000000  1.000000  1.000000  1.000000  1.000000  1.000000
                       1.000000  1.000000  1.000000  1.000000  1.000000  1.000000
                       1.000000  1.000000  1.000000  1.000000  0.000000  0.000000
                       0.000000  0.000000
                       1.000000  1.000000  1.000000  1.000000  1.000000  1.000000
                       1.000000  1.000000  1.000000  1.000000  1.000000  1.000000
                       1.000000  1.000000  1.000000  1.000000  0.000000  0.000000
                       0.000000  0.000000
                       1.000000  1.000000  1.000000  1.000000  1.000000  1.000000
                       1.000000  1.000000  1.000000  1.000000  1.000000  1.000000
                       1.000000  1.000000  1.000000  1.000000  0.000000  0.000000
                       0.000000  0.000000
                       1.000000  1.000000  1.000000  1.000000  1.000000  1.000000
                       1.000000  1.000000  1.000000  1.000000  1.000000  1.000000
                       1.000000  1.000000  1.000000  1.000000  0.000000  0.000000
                       0.000000  0.000000
                       1.000000  1.000000  1.000000  1.000000  1.000000  1.000000
                       1.000000  1.000000  1.000000  1.000000  1.000000  1.000000
                       1.000000  1.000000  1.000000  1.000000  0.000000  0.000000
                       0.000000  0.000000
                       1.000000  1.000000  1.000000  1.000000  1.000000  1.000000
                       1.000000  1.000000  1.000000  1.000000  1.000000  1.000000
                       1.000000  1.000000  1.000000  1.000000  0.000000  0.000000
                       0.000000  0.000000
                       1.000000  1.000000  1.000000  1.000000  1.000000  1.000000
                       1.000000  1.000000  1.000000  1.000000  1.000000  1.000000
                       1.000000  1.000000  1.000000  1.000000  0.000000  0.000000
                       0.000000  0.000000
                       1.000000  1.000000  1.000000  1.000000  1.000000  1.000000
                       1.000000  1.000000  1.000000  1.000000  1.000000  1.000000
                       1.000000  1.000000  1.000000  1.000000  0.000000  0.000000
                       0.000000  0.000000
                       1.000000  1.000000  1.000000  1.000000  1.000000  1.000000
                       1.000000  1.000000  1.000000  1.000000  1.000000  1.000000
                       1.000000  1.000000  1.000000  1.000000  0.000000  0.000000
                       0.000000  0.000000
                       1.000000  1.000000  1.000000  1.000000  1.000000  1.000000
                       1.000000  1.000000  1.000000  1.000000  1.000000  1.000000
                       1.000000  1.000000  1.000000  1.000000  0.000000  0.000000
                       0.000000  0.000000
                       1.000000  1.000000  1.000000  1.000000  1.000000  1.000000
                       1.000000  1.000000  1.000000  1.000000  1.000000  1.000000
                       1.000000  1.000000  1.000000  1.000000  0.000000  0.000000
                       0.000000  0.000000
                       1.000000  1.000000  1.000000  1.000000  1.000000  1.000000
                       1.000000  1.000000  1.000000  1.000000  1.000000  1.000000
                       1.000000  1.000000  1.000000  1.000000  0.000000  0.000000
                       0.000000  0.000000
                       1.000000  1.000000  1.000000  1.000000  1.000000  1.000000
                       1.000000  1.000000  1.000000  1.000000  1.000000  1.000000
                       1.000000  1.000000  1.000000  1.000000  0.000000  0.000000
                       0.000000  0.000000
                       1.000000  1.000000  1.000000  1.000000  1.000000  1.000000
                       1.000000  1.000000  1.000000  1.000000  1.000000  1.000000
                       1.000000  1.000000  1.000000  1.000000  0.000000  0.000000
                       0.000000  0.000000
                       1.000000  1.000000  1.000000  1.000000  1.000000  1.000000
                       1.000000  1.000000  1.000000  1.000000  1.000000  1.000000
                       1.000000  1.000000  1.000000  1.000000  0.000000  0.000000
                       0.000000  0.000000
                       1.000000  1.000000  1.000000  1.000000  1.000000  1.000000
                       1.000000  1.000000  1.000000  1.000000  1.000000  1.000000
                       1.000000  1.000000  1.000000  1.000000  0.000000  0.000000
                       0.000000  0.000000
                       1.000000  1.000000  1.000000  1.000000  1.000000  1.000000
                       1.000000  1.000000  1.000000  1.000000  1.000000  1.000000
                       1.000000  1.000000  1.000000  1.000000  0.000000  0.000000
                       0.000000  0.000000
                       1.000000  1.000000  1.000000  1.000000  1.000000  1.000000
                       1.000000  1.000000  1.000000  1.000000  1.000000  1.000000
                       1.000000  1.000000  1.000000  1.000000  0.000000  0.000000
                       0.000000  0.000000
                       prtocc : prtvol=0, do not print more k-points.
           occopt           7
          prtkbff           1
        ptgroupma          26
            rprim     -5.0000000000E-01  5.0000000000E-01  5.0000000000E-01
                       5.0000000000E-01 -5.0000000000E-01  5.0000000000E-01
                       5.0000000000E-01  5.0000000000E-01 -5.0000000000E-01
           shiftk      5.00000000E-01  5.00000000E-01  5.00000000E-01
          spgroup         139
           spinat      0.0000000000E+00  0.0000000000E+00  5.0000000000E+00
           symafm        1   -1   -1    1    1   -1   -1    1    1   -1
                        -1    1    1   -1   -1    1
        symmorphi1          1
        symmorphi2          0
           symrel      1  0  0   0  1  0   0  0  1      -1  0  0   0 -1  0   0  0 -1
                      -1 -1 -1   0  0  1   0  1  0       1  1  1   0  0 -1   0 -1  0
                       0  1  0   1  0  0  -1 -1 -1       0 -1  0  -1  0  0   1  1  1
                       0  0  1  -1 -1 -1   1  0  0       0  0 -1   1  1  1  -1  0  0
                       0  1  0   1  0  0   0  0  1       0 -1  0  -1  0  0   0  0 -1
                      -1 -1 -1   0  0  1   1  0  0       1  1  1   0  0 -1  -1  0  0
                       1  0  0   0  1  0  -1 -1 -1      -1  0  0   0 -1  0   1  1  1
                       0  0  1  -1 -1 -1   0  1  0       0  0 -1   1  1  1   0 -1  0
           toldfe1     1.00000000E-08 Hartree
           toldfe2     0.00000000E+00 Hartree
           tolwfr1     0.00000000E+00
           tolwfr2     1.00000000E-10
           tsmear      5.00000000E-03 Hartree
            typat      1
              wtk1       0.01563    0.03125    0.03125    0.01563    0.00781    0.01563
                         0.03125    0.03125    0.03125    0.01563    0.01563    0.01563
                         0.01563    0.03125    0.01563    0.01563    0.03125    0.01563
                         0.00781    0.01563    0.03125    0.03125    0.01563    0.01563
                         0.03125    0.03125    0.01563    0.01563    0.03125    0.01563
                         0.01563    0.01563    0.00391    0.01563    0.01563    0.00781
                         0.00781    0.01563    0.01563    0.01563    0.03125    0.01563
                         0.01563    0.03125    0.01563    0.01563    0.01563    0.00391
                         0.00781    0.01563
              wtk2       0.12500    0.12500    0.06250    0.06250    0.12500    0.12500
                         0.12500    0.12500    0.03125    0.06250    0.03125
                       outvars : Printing only first  50 k-points.
            znucl       26.00000

================================================================================

 chkinp: Checking input parameters for consistency, jdtset=   1.

 chkinp: Checking input parameters for consistency, jdtset=   2.
 Checking if input is consistent with KSS generation
 DATA TYPE INFORMATION: 
 REAL:      Data type name: REAL(DP) 
            Kind value:      8
            Precision:      15
            Smallest nonnegligible quantity relative to 1: 0.22204460E-015
            Smallest positive number:                      0.22250739E-307
            Largest representable number:                  0.17976931E+309
 INTEGER:   Data type name: INTEGER(default) 
            Kind value: 4
            Bit size:   32
            Largest representable number: 2147483647
 LOGICAL:   Data type name: LOGICAL 
            Kind value: 4
 CHARACTER: Data type name: CHARACTER             Kind value: 1

  ==== OpenMP parallelism is ON ====
- Max_threads:       1
- Num_threads:       1
- Num_procs:         6
- Dynamic:           F
 
  ==== Using MPI-2 specifications ==== 
  MPI-IO support is ON
  xmpi_tag_ub ................    268435455
  xmpi_bsize_ch ..............            1
  xmpi_bsize_int .............            4
  xmpi_bsize_sp ..............            4
  xmpi_bsize_dp ..............            8
  xmpi_bsize_spc .............            8
  xmpi_bsize_dpc .............           16
  xmpio_bsize_frm ............            4
  xmpi_address_kind ..........            8
  xmpi_offset_kind ...........            8
  MPI_WTICK ..................    1.0000000000000001E-009

================================================================================
== DATASET  1 ==================================================================
-   mpi_nproc: 1, omp_nthreads: 1 (-1 if OMP is not activated)


--- !COMMENT
src_file: m_xgScalapack.F90
src_line: 236
message: |
    xgScalapack in auto mode
...


 getdim_nloc : deduce lmnmax  =  13, lnmax  =   5,
                      lmnmaxso=  24, lnmaxso=   8.
 Exchange-correlation functional for the present dataset will be:
  LDA: new Teter (4/93) with spin-polarized option - ixc=1
 Citation for XC functional:
  S. Goedecker, M. Teter, J. Huetter, PRB 54, 1703 (1996)

 Unit cell volume ucvol=  7.9610044E+01 bohr^3
 Angles (23,13,12)=  1.09471221E+02  1.09471221E+02  1.09471221E+02 degrees

 getcut: wavevector=  0.0000  0.0000  0.0000  ngfft=  30  30  30
         ecut(hartree)=     50.000   => boxcut(ratio)=   2.00790
- pspini: atom type   1  psp file is 26fe.16.hgh
- pspatm: opening atomic psp file    26fe.16.hgh
- Hartwigsen-Goedecker-Hutter psp for Fe,  from PRB58, 3641 (1998)
- 26.00000  16.00000     10605                znucl, zion, pspdat
    3    1    2    0      2001   0.00000      pspcod,pspxc,lmax,lloc,mmax,r2well
 rloc=   0.3600000
 cc1 =   5.3925070; cc2 =  -0.0300660; cc3 =   0.0000000; cc4 =   0.0000000
 rrs =   0.2692680; h11s=  10.1937230; h22s=  -6.8349820; h33s=   0.0000000
 rrp =   0.2476860; h11p=   0.1456130; h22p=  -5.2349540; h33p=   0.0000000
                    k11p=   0.2014500; k22p=  -0.0758290; k33p=   0.0000000
 rrd =   0.2230210; h11d= -12.0269410; h22d=   0.0000000; h33d=   0.0000000
                    k11d=   0.0103220; k22d=   0.0000000; k33d=   0.0000000
-  Local part computed in reciprocal space.

 pspatm : COMMENT -
  the projectors are not normalized,
  so that the KB energies are not consistent with 
  definition in PRB44, 8503 (1991). 
  However, this does not influence the results obtained hereafter.
  pspatm : epsatm=   16.92502289
         --- l  ekb(1:nproj) -->
             0   -0.500862    0.733315
             1   -0.039838    0.006202
             2   -0.004680
  spin-orbit 1   -0.000525    0.001356
  spin-orbit 2    0.000004
 pspatm: atomic psp has been read  and splines computed

   2.70800366E+02                                ecore*ucvol(ha*bohr**3)
 ==== Info on pseudopotentials ====
  Norm-conserving pseudopotentials
  Number of pseudopotentials ..    1
  Number of types of atoms   ..    1
  Calculation with spin-orbit coupling 
  Max number of channels (spin-orbit included)   5
  - Atom type    1 has spin-orbit characteristics (pspso=  2)
  Nonlocal part applied using Legendre polynomials
  Max number of non-local projectors over l and type   2
  Highest angular momentum +1 .......   3
  Max number of (l,n)   components ..   8
  Max number of (l,m,n) components ..   8

 Info on the Q-grid used for form factors in spline form: 
   Number of q-points for radial functions ffspl ..   3001
   Number of q-points for vlspl ...................   3001
   vloc is computed in Reciprocal Space
   model core charge treated in real-space

  XC functional for type 1 is 1
  Pseudo valence available: no

 symatm: atom number 1 is reached starting at atom
   1  1  1  1  1  1  1  1  1  1  1  1  1  1  1  1
 wfconv:    20 bands initialized randomly with npw=  1355, for ikpt=     1
 wfconv:    20 bands initialized randomly with npw=  1351, for ikpt=     2
 wfconv:    20 bands initialized randomly with npw=  1339, for ikpt=     3
 wfconv:    20 bands initialized randomly with npw=  1342, for ikpt=     4
 wfconv:    20 bands initialized randomly with npw=  1361, for ikpt=     5
 wfconv:    20 bands initialized randomly with npw=  1346, for ikpt=     6
 wfconv:    20 bands initialized randomly with npw=  1337, for ikpt=     7
 wfconv:    20 bands initialized randomly with npw=  1337, for ikpt=     8
 wfconv:    20 bands initialized randomly with npw=  1346, for ikpt=     9
 wfconv:    20 bands initialized randomly with npw=  1351, for ikpt=    10
 wfconv:    20 bands initialized randomly with npw=  1360, for ikpt=    11
 wfconv:    20 bands initialized randomly with npw=  1360, for ikpt=    12
 wfconv:    20 bands initialized randomly with npw=  1337, for ikpt=    13
 wfconv:    20 bands initialized randomly with npw=  1337, for ikpt=    14
 wfconv:    20 bands initialized randomly with npw=  1339, for ikpt=    15
 wfconv:    20 bands initialized randomly with npw=  1345, for ikpt=    16
 wfconv:    20 bands initialized randomly with npw=  1348, for ikpt=    17
 wfconv:    20 bands initialized randomly with npw=  1345, for ikpt=    18
 wfconv:    20 bands initialized randomly with npw=  1342, for ikpt=    19
 wfconv:    20 bands initialized randomly with npw=  1347, for ikpt=    20
 wfconv:    20 bands initialized randomly with npw=  1347, for ikpt=    21
 wfconv:    20 bands initialized randomly with npw=  1347, for ikpt=    22
 wfconv:    20 bands initialized randomly with npw=  1347, for ikpt=    23
 wfconv:    20 bands initialized randomly with npw=  1345, for ikpt=    24
 wfconv:    20 bands initialized randomly with npw=  1337, for ikpt=    25
 wfconv:    20 bands initialized randomly with npw=  1345, for ikpt=    26
 wfconv:    20 bands initialized randomly with npw=  1347, for ikpt=    27
 wfconv:    20 bands initialized randomly with npw=  1337, for ikpt=    28
 wfconv:    20 bands initialized randomly with npw=  1347, for ikpt=    29
 wfconv:    20 bands initialized randomly with npw=  1345, for ikpt=    30
 wfconv:    20 bands initialized randomly with npw=  1348, for ikpt=    31
 wfconv:    20 bands initialized randomly with npw=  1360, for ikpt=    32
 wfconv:    20 bands initialized randomly with npw=  1361, for ikpt=    33
 wfconv:    20 bands initialized randomly with npw=  1331, for ikpt=    34
 wfconv:    20 bands initialized randomly with npw=  1346, for ikpt=    35
 wfconv:    20 bands initialized randomly with npw=  1365, for ikpt=    36
 wfconv:    20 bands initialized randomly with npw=  1346, for ikpt=    37
 wfconv:    20 bands initialized randomly with npw=  1346, for ikpt=    38
 wfconv:    20 bands initialized randomly with npw=  1346, for ikpt=    39
 wfconv:    20 bands initialized randomly with npw=  1336, for ikpt=    40
 wfconv:    20 bands initialized randomly with npw=  1337, for ikpt=    41
 wfconv:    20 bands initialized randomly with npw=  1336, for ikpt=    42
 wfconv:    20 bands initialized randomly with npw=  1343, for ikpt=    43
 wfconv:    20 bands initialized randomly with npw=  1343, for ikpt=    44
 wfconv:    20 bands initialized randomly with npw=  1336, for ikpt=    45
 wfconv:    20 bands initialized randomly with npw=  1337, for ikpt=    46
 wfconv:    20 bands initialized randomly with npw=  1346, for ikpt=    47
 wfconv:    20 bands initialized randomly with npw=  1365, for ikpt=    48
 wfconv:    20 bands initialized randomly with npw=  1349, for ikpt=    49
 wfconv:    20 bands initialized randomly with npw=  1345, for ikpt=    50
_setup2: Arith. and geom. avg. npw (full set) are    1343.973    1343.953
  initro : might work yet for nspden=4 (not checked)
  spinat   0.0000000000000000        0.0000000000000000        5.0000000000000000     
 initro: for itypat=  1, take decay length=      0.6000,
 initro: indeed, coreel=     10.0000, nval= 16 and densty=  0.0000E+00.

================================================================================

 getcut: wavevector=  0.0000  0.0000  0.0000  ngfft=  30  30  30
         ecut(hartree)=     50.000   => boxcut(ratio)=   2.00790

 1/G**2 cut-off applied in the following step : cutoff-mode = CRYSTAL

 1/G**2 cut-off applied in the following step : cutoff-mode = CRYSTAL

 1/G**2 cut-off applied in the following step : cutoff-mode = CRYSTAL

 ITER STEP NUMBER     1
 Max number of non-self-consistent loops: 2
 newocc: new Fermi energy is      -1.015004 , with nelect=     16.000000, Number of bisection calls: 46
 mkrho: echo density (plane-wave part only)
 Total charge density [el/Bohr^3]
)     Maximum=    6.5206E+00  at reduced coord.    0.9333    0.9333    0.8667
)     Minimum=    1.1024E-03  at reduced coord.    0.7667    0.4667    0.3000
   Integrated=    1.6000E+01
 x component of magnetization [el/Bohr^3]
)     Maximum=    1.7079E-02  at reduced coord.    0.9000    0.9000    0.9000
)     Minimum=   -1.7079E-02  at reduced coord.    0.1000    0.0000    0.0000
   Integrated=    0.0000E+00
 y component of magnetization [el/Bohr^3]
)     Maximum=    1.7079E-02  at reduced coord.    0.9000    0.9000    0.9000
)     Minimum=   -1.7079E-02  at reduced coord.    0.0000    0.1000    0.0000
   Integrated=    0.0000E+00
 z component of magnetization [el/Bohr^3]
)     Maximum=    4.8946E-01  at reduced coord.    0.8667    0.9667    0.9667
)     Minimum=   -3.2219E-05  at reduced coord.    0.7000    0.1667    0.4667
   Integrated=    1.1032E+00
 Magnetization (absolute value) [el/Bohr^3]
)     Maximum=    4.8985E-01  at reduced coord.    0.8667    0.9667    0.9667
)     Minimum=    5.4076E-06  at reduced coord.    0.6333    0.1333    0.5000
   Integrated=    1.1046E+00
 Relative magnetization (=zeta, between -1 and 1)
)     Maximum=    8.4668E-02  at reduced coord.    0.7000    0.9667    0.9667
)     Minimum=    4.4210E-03  at reduced coord.    0.6333    0.1333    0.5000
 Total charge density [el/Bohr^3]
)     Maximum=    6.5206E+00  at reduced coord.    0.9333    0.9333    0.8667
)     Minimum=    1.1024E-03  at reduced coord.    0.7667    0.4667    0.3000
   Integrated=    1.6000E+01
 x component of magnetization [el/Bohr^3]
)     Maximum=    1.7079E-02  at reduced coord.    0.9000    0.9000    0.9000
)     Minimum=   -1.7079E-02  at reduced coord.    0.1000    0.0000    0.0000
   Integrated=    0.0000E+00
 y component of magnetization [el/Bohr^3]
)     Maximum=    1.7079E-02  at reduced coord.    0.9000    0.9000    0.9000
)     Minimum=   -1.7079E-02  at reduced coord.    0.0000    0.1000    0.0000
   Integrated=    0.0000E+00
 z component of magnetization [el/Bohr^3]
)     Maximum=    4.8946E-01  at reduced coord.    0.8667    0.9667    0.9667
)     Minimum=   -3.2219E-05  at reduced coord.    0.7000    0.1667    0.4667
   Integrated=    1.1032E+00
 Magnetization (absolute value) [el/Bohr^3]
)     Maximum=    4.8985E-01  at reduced coord.    0.8667    0.9667    0.9667
)     Minimum=    5.4076E-06  at reduced coord.    0.6333    0.1333    0.5000
   Integrated=    1.1046E+00
 Relative magnetization (=zeta, between -1 and 1)
)     Maximum=    8.4668E-02  at reduced coord.    0.7000    0.9667    0.9667
)     Minimum=    4.4210E-03  at reduced coord.    0.6333    0.1333    0.5000

 1/G**2 cut-off applied in the following step : cutoff-mode = CRYSTAL
 ETOT  1  -111.06158737652    -1.111E+02 3.334E+00 8.533E+04
 scprqt: <Vxc>= -3.1565336E-01 hartree

 Simple mixing update:
  residual square of the potential:    53802.184733844006
{SCF_istep: 1 , Vnl|psi>: 11200 , wall_time: ' 25.15 [s] '} <<< TIME

 ITER STEP NUMBER     2
 Max number of non-self-consistent loops: 2
 newocc: new Fermi energy is       1.170366 , with nelect=     16.000000, Number of bisection calls: 47
 mkrho: echo density (plane-wave part only)
 Total charge density [el/Bohr^3]
)     Maximum=    1.6713E+00  at reduced coord.    0.9667    0.9667    0.8667
)     Minimum=    3.1256E-03  at reduced coord.    0.0000    0.0000    0.0000
   Integrated=    1.6000E+01
 x component of magnetization [el/Bohr^3]
)     Maximum=    7.7287E-04  at reduced coord.    0.9667    0.8667    0.9667
)     Minimum=   -7.7287E-04  at reduced coord.    0.9000    0.0000    0.0333
   Integrated=    0.0000E+00
 y component of magnetization [el/Bohr^3]
)     Maximum=    7.7287E-04  at reduced coord.    0.8667    0.9667    0.9667
)     Minimum=   -7.7287E-04  at reduced coord.    0.0000    0.9000    0.0333
   Integrated=    0.0000E+00
 z component of magnetization [el/Bohr^3]
)     Maximum=    2.4960E-02  at reduced coord.    0.0000    0.9000    0.9000
)     Minimum=   -7.5069E-04  at reduced coord.    0.7333    0.2333    0.5000
   Integrated=    1.3090E-01
 Magnetization (absolute value) [el/Bohr^3]
)     Maximum=    2.4960E-02  at reduced coord.    0.0000    0.9000    0.9000
)     Minimum=    3.0912E-07  at reduced coord.    0.5667    0.5000    0.0667
   Integrated=    1.3768E-01
 Relative magnetization (=zeta, between -1 and 1)
)     Maximum=    1.9101E-02  at reduced coord.    0.0000    0.0000    0.0000
)     Minimum=    3.0279E-06  at reduced coord.    0.5667    0.5000    0.0667

--- !WARNING
src_file: m_vtorho.F90
src_line: 1747
message: |
    For k-point number: 1,
    The minimal occupation factor is:   1.000.
    An adequate monitoring of convergence requires it to be  at most 0.01_dp.
    Action: increase slightly the number of bands.
...

 Total charge density [el/Bohr^3]
)     Maximum=    1.6713E+00  at reduced coord.    0.9667    0.9667    0.8667
)     Minimum=    3.1256E-03  at reduced coord.    0.0000    0.0000    0.0000
   Integrated=    1.6000E+01
 x component of magnetization [el/Bohr^3]
)     Maximum=    7.7287E-04  at reduced coord.    0.9667    0.8667    0.9667
)     Minimum=   -7.7287E-04  at reduced coord.    0.9000    0.0000    0.0333
   Integrated=    0.0000E+00
 y component of magnetization [el/Bohr^3]
)     Maximum=    7.7287E-04  at reduced coord.    0.8667    0.9667    0.9667
)     Minimum=   -7.7287E-04  at reduced coord.    0.0000    0.9000    0.0333
   Integrated=    0.0000E+00
 z component of magnetization [el/Bohr^3]
)     Maximum=    2.4960E-02  at reduced coord.    0.0000    0.9000    0.9000
)     Minimum=   -7.5069E-04  at reduced coord.    0.7333    0.2333    0.5000
   Integrated=    1.3090E-01
 Magnetization (absolute value) [el/Bohr^3]
)     Maximum=    2.4960E-02  at reduced coord.    0.0000    0.9000    0.9000
)     Minimum=    3.0912E-07  at reduced coord.    0.5667    0.5000    0.0667
   Integrated=    1.3768E-01
 Relative magnetization (=zeta, between -1 and 1)
)     Maximum=    1.9101E-02  at reduced coord.    0.0000    0.0000    0.0000
)     Minimum=    3.0279E-06  at reduced coord.    0.5667    0.5000    0.0667
 ETOT  2  -112.48097276610    -1.419E+00 5.125E-01 7.653E+04
 scprqt: <Vxc>= -6.0048018E-01 hartree

 Pulay update with  1 previous iterations:
 mixing of old trial potential: alpha(m:m-4)=  0.516      0.484
{SCF_istep: 2 , Vnl|psi>: 11078 , wall_time: ' 24.76 [s] '} <<< TIME

 ITER STEP NUMBER     3
 newocc: new Fermi energy is       0.320548 , with nelect=     16.000000, Number of bisection calls: 45
 mkrho: echo density (plane-wave part only)
 Total charge density [el/Bohr^3]
)     Maximum=    3.8608E+00  at reduced coord.    0.0000    0.9000    0.9000
)     Minimum=    1.5811E-02  at reduced coord.    0.0000    0.0000    0.0000
   Integrated=    1.6000E+01
 x component of magnetization [el/Bohr^3]
)     Maximum=    6.5941E-03  at reduced coord.    0.9333    0.8667    0.9667
)     Minimum=   -6.5941E-03  at reduced coord.    0.9000    0.9667    0.0333
   Integrated=    0.0000E+00
 y component of magnetization [el/Bohr^3]
)     Maximum=    6.5941E-03  at reduced coord.    0.8667    0.9333    0.9667
)     Minimum=   -6.5941E-03  at reduced coord.    0.9667    0.9000    0.0333
   Integrated=    0.0000E+00
 z component of magnetization [el/Bohr^3]
)     Maximum=    3.7227E-01  at reduced coord.    0.9000    0.9000    0.0000
)     Minimum=   -1.3301E-03  at reduced coord.    0.5000    0.0000    0.5000
   Integrated=    8.9789E-01
 Magnetization (absolute value) [el/Bohr^3]
)     Maximum=    3.7227E-01  at reduced coord.    0.9000    0.9000    0.0000
)     Minimum=    1.4791E-05  at reduced coord.    0.8333    0.3333    0.2667
   Integrated=    9.3463E-01
 Relative magnetization (=zeta, between -1 and 1)
)     Maximum=    1.1718E-01  at reduced coord.    0.7667    0.7667    0.0000
)     Minimum=    3.6290E-04  at reduced coord.    0.8333    0.3333    0.2667

--- !WARNING
src_file: m_vtorho.F90
src_line: 1747
message: |
    For k-point number: 1,
    The minimal occupation factor is:   0.999.
    An adequate monitoring of convergence requires it to be  at most 0.01_dp.
    Action: increase slightly the number of bands.
...

 Total charge density [el/Bohr^3]
)     Maximum=    3.8608E+00  at reduced coord.    0.0000    0.9000    0.9000
)     Minimum=    1.5811E-02  at reduced coord.    0.0000    0.0000    0.0000
   Integrated=    1.6000E+01
 x component of magnetization [el/Bohr^3]
)     Maximum=    6.5941E-03  at reduced coord.    0.9333    0.8667    0.9667
)     Minimum=   -6.5941E-03  at reduced coord.    0.9000    0.9667    0.0333
   Integrated=    0.0000E+00
 y component of magnetization [el/Bohr^3]
)     Maximum=    6.5941E-03  at reduced coord.    0.8667    0.9333    0.9667
)     Minimum=   -6.5941E-03  at reduced coord.    0.9667    0.9000    0.0333
   Integrated=    0.0000E+00
 z component of magnetization [el/Bohr^3]
)     Maximum=    3.7227E-01  at reduced coord.    0.9000    0.9000    0.0000
)     Minimum=   -1.3301E-03  at reduced coord.    0.5000    0.0000    0.5000
   Integrated=    8.9789E-01
 Magnetization (absolute value) [el/Bohr^3]
)     Maximum=    3.7227E-01  at reduced coord.    0.9000    0.9000    0.0000
)     Minimum=    1.4791E-05  at reduced coord.    0.8333    0.3333    0.2667
   Integrated=    9.3463E-01
 Relative magnetization (=zeta, between -1 and 1)
)     Maximum=    1.1718E-01  at reduced coord.    0.7667    0.7667    0.0000
)     Minimum=    3.6290E-04  at reduced coord.    0.8333    0.3333    0.2667
 ETOT  3  -122.44819764514    -9.967E+00 7.711E-01 5.355E+02
 scprqt: <Vxc>= -5.0730218E-01 hartree

 Pulay update with  2 previous iterations:
 mixing of old trial potential: alpha(m:m-4)=  0.303      0.367      0.330
{SCF_istep: 3 , Vnl|psi>: 5594 , wall_time: ' 12.93 [s] '} <<< TIME

 ITER STEP NUMBER     4
 newocc: new Fermi energy is       0.405901 , with nelect=     16.000000, Number of bisection calls: 47
 mkrho: echo density (plane-wave part only)
 Total charge density [el/Bohr^3]
)     Maximum=    3.6958E+00  at reduced coord.    0.8667    0.9667    0.9333
)     Minimum=    1.6047E-02  at reduced coord.    0.0000    0.0000    0.0000
   Integrated=    1.6000E+01
 x component of magnetization [el/Bohr^3]
)     Maximum=    2.5582E-03  at reduced coord.    0.9667    0.8667    0.9333
)     Minimum=   -2.5582E-03  at reduced coord.    0.9333    0.0333    0.0667
   Integrated=    0.0000E+00
 y component of magnetization [el/Bohr^3]
)     Maximum=    2.5582E-03  at reduced coord.    0.8667    0.9667    0.9333
)     Minimum=   -2.5582E-03  at reduced coord.    0.0333    0.9333    0.0667
   Integrated=    0.0000E+00
 z component of magnetization [el/Bohr^3]
)     Maximum=    5.5452E-01  at reduced coord.    0.0000    0.9000    0.9000
)     Minimum=   -8.2245E-04  at reduced coord.    0.7333    0.2333    0.4667
   Integrated=    1.4776E+00
 Magnetization (absolute value) [el/Bohr^3]
)     Maximum=    5.5452E-01  at reduced coord.    0.0000    0.9000    0.9000
)     Minimum=    2.6060E-06  at reduced coord.    0.6333    0.3333    0.3000
   Integrated=    1.4879E+00
 Relative magnetization (=zeta, between -1 and 1)
)     Maximum=    2.1061E-01  at reduced coord.    0.0000    0.7333    0.7333
)     Minimum=    7.1867E-05  at reduced coord.    0.6333    0.3333    0.3000
 Total charge density [el/Bohr^3]
)     Maximum=    3.6958E+00  at reduced coord.    0.8667    0.9667    0.9333
)     Minimum=    1.6047E-02  at reduced coord.    0.0000    0.0000    0.0000
   Integrated=    1.6000E+01
 x component of magnetization [el/Bohr^3]
)     Maximum=    2.5582E-03  at reduced coord.    0.9667    0.8667    0.9333
)     Minimum=   -2.5582E-03  at reduced coord.    0.9333    0.0333    0.0667
   Integrated=    0.0000E+00
 y component of magnetization [el/Bohr^3]
)     Maximum=    2.5582E-03  at reduced coord.    0.8667    0.9667    0.9333
)     Minimum=   -2.5582E-03  at reduced coord.    0.0333    0.9333    0.0667
   Integrated=    0.0000E+00
 z component of magnetization [el/Bohr^3]
)     Maximum=    5.5452E-01  at reduced coord.    0.0000    0.9000    0.9000
)     Minimum=   -8.2245E-04  at reduced coord.    0.7333    0.2333    0.4667
   Integrated=    1.4776E+00
 Magnetization (absolute value) [el/Bohr^3]
)     Maximum=    5.5452E-01  at reduced coord.    0.0000    0.9000    0.9000
)     Minimum=    2.6060E-06  at reduced coord.    0.6333    0.3333    0.3000
   Integrated=    1.4879E+00
 Relative magnetization (=zeta, between -1 and 1)
)     Maximum=    2.1061E-01  at reduced coord.    0.0000    0.7333    0.7333
)     Minimum=    7.1867E-05  at reduced coord.    0.6333    0.3333    0.3000
 ETOT  4  -122.63213665460    -1.839E-01 2.715E-01 4.833E+02
 scprqt: <Vxc>= -5.0401073E-01 hartree

 Pulay update with  3 previous iterations:
 mixing of old trial potential: alpha(m:m-4)=   1.55      -1.03      0.266      0.215
{SCF_istep: 4 , Vnl|psi>: 5582 , wall_time: ' 12.91 [s] '} <<< TIME

 ITER STEP NUMBER     5
 newocc: new Fermi energy is       0.454111 , with nelect=     16.000000, Number of bisection calls: 48
 mkrho: echo density (plane-wave part only)
 Total charge density [el/Bohr^3]
)     Maximum=    3.6193E+00  at reduced coord.    0.9333    0.9333    0.8667
)     Minimum=    1.6688E-02  at reduced coord.    0.0000    0.0000    0.0000
   Integrated=    1.6000E+01
 x component of magnetization [el/Bohr^3]
)     Maximum=    2.1289E-03  at reduced coord.    0.9667    0.8667    0.9000
)     Minimum=   -2.1289E-03  at reduced coord.    0.9667    0.0667    0.1000
   Integrated=    0.0000E+00
 y component of magnetization [el/Bohr^3]
)     Maximum=    2.1289E-03  at reduced coord.    0.8667    0.9667    0.9000
)     Minimum=   -2.1289E-03  at reduced coord.    0.0667    0.9667    0.1000
   Integrated=    0.0000E+00
 z component of magnetization [el/Bohr^3]
)     Maximum=    6.7878E-01  at reduced coord.    0.0000    0.9000    0.9000
)     Minimum=   -1.6600E-03  at reduced coord.    0.7333    0.2333    0.4667
   Integrated=    1.7947E+00
 Magnetization (absolute value) [el/Bohr^3]
)     Maximum=    6.7878E-01  at reduced coord.    0.0000    0.9000    0.9000
)     Minimum=    1.8919E-06  at reduced coord.    0.6667    0.0333    0.2667
   Integrated=    1.8252E+00
 Relative magnetization (=zeta, between -1 and 1)
)     Maximum=    2.6833E-01  at reduced coord.    0.7333    0.7333    0.0000
)     Minimum=    4.4081E-05  at reduced coord.    0.6667    0.0333    0.2667
 Total charge density [el/Bohr^3]
)     Maximum=    3.6193E+00  at reduced coord.    0.9333    0.9333    0.8667
)     Minimum=    1.6688E-02  at reduced coord.    0.0000    0.0000    0.0000
   Integrated=    1.6000E+01
 x component of magnetization [el/Bohr^3]
)     Maximum=    2.1289E-03  at reduced coord.    0.9667    0.8667    0.9000
)     Minimum=   -2.1289E-03  at reduced coord.    0.9667    0.0667    0.1000
   Integrated=    0.0000E+00
 y component of magnetization [el/Bohr^3]
)     Maximum=    2.1289E-03  at reduced coord.    0.8667    0.9667    0.9000
)     Minimum=   -2.1289E-03  at reduced coord.    0.0667    0.9667    0.1000
   Integrated=    0.0000E+00
 z component of magnetization [el/Bohr^3]
)     Maximum=    6.7878E-01  at reduced coord.    0.0000    0.9000    0.9000
)     Minimum=   -1.6600E-03  at reduced coord.    0.7333    0.2333    0.4667
   Integrated=    1.7947E+00
 Magnetization (absolute value) [el/Bohr^3]
)     Maximum=    6.7878E-01  at reduced coord.    0.0000    0.9000    0.9000
)     Minimum=    1.8919E-06  at reduced coord.    0.6667    0.0333    0.2667
   Integrated=    1.8252E+00
 Relative magnetization (=zeta, between -1 and 1)
)     Maximum=    2.6833E-01  at reduced coord.    0.7333    0.7333    0.0000
)     Minimum=    4.4081E-05  at reduced coord.    0.6667    0.0333    0.2667
 ETOT  5  -122.68174550123    -4.961E-02 6.026E-02 4.559E+01
 scprqt: <Vxc>= -5.1295765E-01 hartree

 Pulay update with  4 previous iterations:
 mixing of old trial potential: alpha(m:m-4)=  0.964      0.405     -0.594      0.116      0.110
{SCF_istep: 5 , Vnl|psi>: 5530 , wall_time: ' 12.79 [s] '} <<< TIME

 ITER STEP NUMBER     6
 newocc: new Fermi energy is       0.445468 , with nelect=     16.000000, Number of bisection calls: 47
 mkrho: echo density (plane-wave part only)
 Total charge density [el/Bohr^3]
)     Maximum=    3.6495E+00  at reduced coord.    0.9333    0.9333    0.8667
)     Minimum=    1.7357E-02  at reduced coord.    0.0000    0.0000    0.0000
   Integrated=    1.6000E+01
 x component of magnetization [el/Bohr^3]
)     Maximum=    2.0936E-03  at reduced coord.    0.1000    0.0667    0.9667
)     Minimum=   -2.0936E-03  at reduced coord.    0.1000    0.1333    0.0333
   Integrated=    0.0000E+00
 y component of magnetization [el/Bohr^3]
)     Maximum=    2.0936E-03  at reduced coord.    0.0667    0.1000    0.9667
)     Minimum=   -2.0936E-03  at reduced coord.    0.1333    0.1000    0.0333
   Integrated=    0.0000E+00
 z component of magnetization [el/Bohr^3]
)     Maximum=    7.2991E-01  at reduced coord.    0.0000    0.9000    0.9000
)     Minimum=   -2.0743E-03  at reduced coord.    0.7333    0.2333    0.4667
   Integrated=    1.9166E+00
 Magnetization (absolute value) [el/Bohr^3]
)     Maximum=    7.2991E-01  at reduced coord.    0.0000    0.9000    0.9000
)     Minimum=    1.2998E-06  at reduced coord.    0.8333    0.4000    0.2333
   Integrated=    1.9624E+00
 Relative magnetization (=zeta, between -1 and 1)
)     Maximum=    2.8341E-01  at reduced coord.    0.7333    0.7333    0.0000
)     Minimum=    3.2007E-05  at reduced coord.    0.8333    0.4000    0.2333
 Total charge density [el/Bohr^3]
)     Maximum=    3.6495E+00  at reduced coord.    0.9333    0.9333    0.8667
)     Minimum=    1.7357E-02  at reduced coord.    0.0000    0.0000    0.0000
   Integrated=    1.6000E+01
 x component of magnetization [el/Bohr^3]
)     Maximum=    2.0936E-03  at reduced coord.    0.1000    0.0667    0.9667
)     Minimum=   -2.0936E-03  at reduced coord.    0.1000    0.1333    0.0333
   Integrated=    0.0000E+00
 y component of magnetization [el/Bohr^3]
)     Maximum=    2.0936E-03  at reduced coord.    0.0667    0.1000    0.9667
)     Minimum=   -2.0936E-03  at reduced coord.    0.1333    0.1000    0.0333
   Integrated=    0.0000E+00
 z component of magnetization [el/Bohr^3]
)     Maximum=    7.2991E-01  at reduced coord.    0.0000    0.9000    0.9000
)     Minimum=   -2.0743E-03  at reduced coord.    0.7333    0.2333    0.4667
   Integrated=    1.9166E+00
 Magnetization (absolute value) [el/Bohr^3]
)     Maximum=    7.2991E-01  at reduced coord.    0.0000    0.9000    0.9000
)     Minimum=    1.2998E-06  at reduced coord.    0.8333    0.4000    0.2333
   Integrated=    1.9624E+00
 Relative magnetization (=zeta, between -1 and 1)
)     Maximum=    2.8341E-01  at reduced coord.    0.7333    0.7333    0.0000
)     Minimum=    3.2007E-05  at reduced coord.    0.8333    0.4000    0.2333
 ETOT  6  -122.68619991233    -4.454E-03 3.419E-02 1.766E+01
 scprqt: <Vxc>= -5.1314688E-01 hartree

 Pulay update with  5 previous iterations:
 mixing of old trial potential: alpha(m:m-4)=   1.63     -0.731      0.290     -0.241      0.314E-01
{SCF_istep: 6 , Vnl|psi>: 5260 , wall_time: ' 12.20 [s] '} <<< TIME

 ITER STEP NUMBER     7
 newocc: new Fermi energy is       0.456975 , with nelect=     16.000000, Number of bisection calls: 49
 mkrho: echo density (plane-wave part only)
 Total charge density [el/Bohr^3]
)     Maximum=    3.6280E+00  at reduced coord.    0.9333    0.9333    0.8667
)     Minimum=    1.7687E-02  at reduced coord.    0.0000    0.0000    0.0000
   Integrated=    1.6000E+01
 x component of magnetization [el/Bohr^3]
)     Maximum=    1.3438E-03  at reduced coord.    0.1000    0.0667    0.9667
)     Minimum=   -1.3438E-03  at reduced coord.    0.1000    0.1333    0.0333
   Integrated=    0.0000E+00
 y component of magnetization [el/Bohr^3]
)     Maximum=    1.3438E-03  at reduced coord.    0.0667    0.1000    0.9667
)     Minimum=   -1.3438E-03  at reduced coord.    0.1333    0.1000    0.0333
   Integrated=    0.0000E+00
 z component of magnetization [el/Bohr^3]
)     Maximum=    7.6399E-01  at reduced coord.    0.0000    0.9000    0.9000
)     Minimum=   -2.1771E-03  at reduced coord.    0.7333    0.2333    0.5000
   Integrated=    2.0346E+00
 Magnetization (absolute value) [el/Bohr^3]
)     Maximum=    7.6399E-01  at reduced coord.    0.0000    0.9000    0.9000
)     Minimum=    4.6398E-06  at reduced coord.    0.9000    0.4333    0.3667
   Integrated=    2.0802E+00
 Relative magnetization (=zeta, between -1 and 1)
)     Maximum=    2.9646E-01  at reduced coord.    0.7333    0.7333    0.0000
)     Minimum=    1.1577E-04  at reduced coord.    0.9000    0.4333    0.3667
 Total charge density [el/Bohr^3]
)     Maximum=    3.6280E+00  at reduced coord.    0.9333    0.9333    0.8667
)     Minimum=    1.7687E-02  at reduced coord.    0.0000    0.0000    0.0000
   Integrated=    1.6000E+01
 x component of magnetization [el/Bohr^3]
)     Maximum=    1.3438E-03  at reduced coord.    0.1000    0.0667    0.9667
)     Minimum=   -1.3438E-03  at reduced coord.    0.1000    0.1333    0.0333
   Integrated=    0.0000E+00
 y component of magnetization [el/Bohr^3]
)     Maximum=    1.3438E-03  at reduced coord.    0.0667    0.1000    0.9667
)     Minimum=   -1.3438E-03  at reduced coord.    0.1333    0.1000    0.0333
   Integrated=    0.0000E+00
 z component of magnetization [el/Bohr^3]
)     Maximum=    7.6399E-01  at reduced coord.    0.0000    0.9000    0.9000
)     Minimum=   -2.1771E-03  at reduced coord.    0.7333    0.2333    0.5000
   Integrated=    2.0346E+00
 Magnetization (absolute value) [el/Bohr^3]
)     Maximum=    7.6399E-01  at reduced coord.    0.0000    0.9000    0.9000
)     Minimum=    4.6398E-06  at reduced coord.    0.9000    0.4333    0.3667
   Integrated=    2.0802E+00
 Relative magnetization (=zeta, between -1 and 1)
)     Maximum=    2.9646E-01  at reduced coord.    0.7333    0.7333    0.0000
)     Minimum=    1.1577E-04  at reduced coord.    0.9000    0.4333    0.3667
 ETOT  7  -122.68726398751    -1.064E-03 2.201E-02 4.474E+00
 scprqt: <Vxc>= -5.1605398E-01 hartree

 Pulay update with  6 previous iterations:
 mixing of old trial potential: alpha(m:m-4)=   1.07      0.800E-01 -0.284      0.213     -0.794E-01
{SCF_istep: 7 , Vnl|psi>: 5245 , wall_time: ' 12.18 [s] '} <<< TIME

 ITER STEP NUMBER     8
 newocc: new Fermi energy is       0.449042 , with nelect=     16.000000, Number of bisection calls: 47
 mkrho: echo density (plane-wave part only)
 Total charge density [el/Bohr^3]
)     Maximum=    3.6477E+00  at reduced coord.    0.8667    0.9333    0.9333
)     Minimum=    1.7823E-02  at reduced coord.    0.0000    0.0000    0.0000
   Integrated=    1.6000E+01
 x component of magnetization [el/Bohr^3]
)     Maximum=    1.0381E-03  at reduced coord.    0.1000    0.0667    0.9667
)     Minimum=   -1.0381E-03  at reduced coord.    0.1000    0.1333    0.0333
   Integrated=    0.0000E+00
 y component of magnetization [el/Bohr^3]
)     Maximum=    1.0381E-03  at reduced coord.    0.0667    0.1000    0.9667
)     Minimum=   -1.0381E-03  at reduced coord.    0.1333    0.1000    0.0333
   Integrated=    0.0000E+00
 z component of magnetization [el/Bohr^3]
)     Maximum=    7.6909E-01  at reduced coord.    0.0000    0.9000    0.9000
)     Minimum=   -2.2353E-03  at reduced coord.    0.7333    0.2333    0.5000
   Integrated=    2.0596E+00
 Magnetization (absolute value) [el/Bohr^3]
)     Maximum=    7.6909E-01  at reduced coord.    0.0000    0.9000    0.9000
)     Minimum=    6.9391E-06  at reduced coord.    0.8333    0.4000    0.2333
   Integrated=    2.1079E+00
 Relative magnetization (=zeta, between -1 and 1)
)     Maximum=    2.9590E-01  at reduced coord.    0.0000    0.7333    0.7333
)     Minimum=    1.6494E-04  at reduced coord.    0.8333    0.4000    0.2333
 Total charge density [el/Bohr^3]
)     Maximum=    3.6477E+00  at reduced coord.    0.8667    0.9333    0.9333
)     Minimum=    1.7823E-02  at reduced coord.    0.0000    0.0000    0.0000
   Integrated=    1.6000E+01
 x component of magnetization [el/Bohr^3]
)     Maximum=    1.0381E-03  at reduced coord.    0.1000    0.0667    0.9667
)     Minimum=   -1.0381E-03  at reduced coord.    0.1000    0.1333    0.0333
   Integrated=    0.0000E+00
 y component of magnetization [el/Bohr^3]
)     Maximum=    1.0381E-03  at reduced coord.    0.0667    0.1000    0.9667
)     Minimum=   -1.0381E-03  at reduced coord.    0.1333    0.1000    0.0333
   Integrated=    0.0000E+00
 z component of magnetization [el/Bohr^3]
)     Maximum=    7.6909E-01  at reduced coord.    0.0000    0.9000    0.9000
)     Minimum=   -2.2353E-03  at reduced coord.    0.7333    0.2333    0.5000
   Integrated=    2.0596E+00
 Magnetization (absolute value) [el/Bohr^3]
)     Maximum=    7.6909E-01  at reduced coord.    0.0000    0.9000    0.9000
)     Minimum=    6.9391E-06  at reduced coord.    0.8333    0.4000    0.2333
   Integrated=    2.1079E+00
 Relative magnetization (=zeta, between -1 and 1)
)     Maximum=    2.9590E-01  at reduced coord.    0.0000    0.7333    0.7333
)     Minimum=    1.6494E-04  at reduced coord.    0.8333    0.4000    0.2333
 ETOT  8  -122.68810413942    -8.402E-04 1.203E-02 1.275E-02
 scprqt: <Vxc>= -5.1499199E-01 hartree

 Pulay update with  7 previous iterations:
 mixing of old trial potential: alpha(m:m-4)=  0.905      0.271     -0.234     -0.355E-02  0.527E-01
{SCF_istep: 8 , Vnl|psi>: 5385 , wall_time: ' 12.47 [s] '} <<< TIME

 ITER STEP NUMBER     9
 newocc: new Fermi energy is       0.449119 , with nelect=     16.000000, Number of bisection calls: 48
 mkrho: echo density (plane-wave part only)
 Total charge density [el/Bohr^3]
)     Maximum=    3.6509E+00  at reduced coord.    0.8667    0.9333    0.9333
)     Minimum=    1.7797E-02  at reduced coord.    0.0000    0.0000    0.0000
   Integrated=    1.6000E+01
 x component of magnetization [el/Bohr^3]
)     Maximum=    8.6230E-04  at reduced coord.    0.1000    0.0667    0.9667
)     Minimum=   -8.6230E-04  at reduced coord.    0.1000    0.1333    0.0333
   Integrated=    0.0000E+00
 y component of magnetization [el/Bohr^3]
)     Maximum=    8.6230E-04  at reduced coord.    0.0667    0.1000    0.9667
)     Minimum=   -8.6230E-04  at reduced coord.    0.1333    0.1000    0.0333
   Integrated=    0.0000E+00
 z component of magnetization [el/Bohr^3]
)     Maximum=    7.6702E-01  at reduced coord.    0.9000    0.9000    0.0000
)     Minimum=   -2.2537E-03  at reduced coord.    0.7333    0.2333    0.5000
   Integrated=    2.0603E+00
 Magnetization (absolute value) [el/Bohr^3]
)     Maximum=    7.6702E-01  at reduced coord.    0.9000    0.9000    0.0000
)     Minimum=    1.2509E-05  at reduced coord.    0.6333    0.2333    0.1667
   Integrated=    2.1097E+00
 Relative magnetization (=zeta, between -1 and 1)
)     Maximum=    2.9489E-01  at reduced coord.    0.7333    0.7333    0.0000
)     Minimum=    2.6230E-04  at reduced coord.    0.6333    0.2333    0.1667
 Total charge density [el/Bohr^3]
)     Maximum=    3.6509E+00  at reduced coord.    0.8667    0.9333    0.9333
)     Minimum=    1.7797E-02  at reduced coord.    0.0000    0.0000    0.0000
   Integrated=    1.6000E+01
 x component of magnetization [el/Bohr^3]
)     Maximum=    8.6230E-04  at reduced coord.    0.1000    0.0667    0.9667
)     Minimum=   -8.6230E-04  at reduced coord.    0.1000    0.1333    0.0333
   Integrated=    0.0000E+00
 y component of magnetization [el/Bohr^3]
)     Maximum=    8.6230E-04  at reduced coord.    0.0667    0.1000    0.9667
)     Minimum=   -8.6230E-04  at reduced coord.    0.1333    0.1000    0.0333
   Integrated=    0.0000E+00
 z component of magnetization [el/Bohr^3]
)     Maximum=    7.6702E-01  at reduced coord.    0.9000    0.9000    0.0000
)     Minimum=   -2.2537E-03  at reduced coord.    0.7333    0.2333    0.5000
   Integrated=    2.0603E+00
 Magnetization (absolute value) [el/Bohr^3]
)     Maximum=    7.6702E-01  at reduced coord.    0.9000    0.9000    0.0000
)     Minimum=    1.2509E-05  at reduced coord.    0.6333    0.2333    0.1667
   Integrated=    2.1097E+00
 Relative magnetization (=zeta, between -1 and 1)
)     Maximum=    2.9489E-01  at reduced coord.    0.7333    0.7333    0.0000
)     Minimum=    2.6230E-04  at reduced coord.    0.6333    0.2333    0.1667
 ETOT  9  -122.68809031094     1.383E-05 6.850E-03 1.342E-01
 scprqt: <Vxc>= -5.1474127E-01 hartree

 Pulay update with  7 previous iterations:
 mixing of old trial potential: alpha(m:m-4)=  0.582      0.297      0.246     -0.144     -0.110E-01
{SCF_istep: 9 , Vnl|psi>: 5509 , wall_time: ' 12.73 [s] '} <<< TIME

 ITER STEP NUMBER    10
 newocc: new Fermi energy is       0.449560 , with nelect=     16.000000, Number of bisection calls: 48
 mkrho: echo density (plane-wave part only)
 Total charge density [el/Bohr^3]
)     Maximum=    3.6504E+00  at reduced coord.    0.8667    0.9333    0.9333
)     Minimum=    1.7801E-02  at reduced coord.    0.0000    0.0000    0.0000
   Integrated=    1.6000E+01
 x component of magnetization [el/Bohr^3]
)     Maximum=    8.5501E-04  at reduced coord.    0.1000    0.0667    0.9667
)     Minimum=   -8.5501E-04  at reduced coord.    0.1000    0.1333    0.0333
   Integrated=    0.0000E+00
 y component of magnetization [el/Bohr^3]
)     Maximum=    8.5501E-04  at reduced coord.    0.0667    0.1000    0.9667
)     Minimum=   -8.5501E-04  at reduced coord.    0.1333    0.1000    0.0333
   Integrated=    0.0000E+00
 z component of magnetization [el/Bohr^3]
)     Maximum=    7.6782E-01  at reduced coord.    0.9000    0.9000    0.0000
)     Minimum=   -2.2659E-03  at reduced coord.    0.7333    0.2333    0.5000
   Integrated=    2.0638E+00
 Magnetization (absolute value) [el/Bohr^3]
)     Maximum=    7.6782E-01  at reduced coord.    0.9000    0.9000    0.0000
)     Minimum=    1.4840E-05  at reduced coord.    0.8000    0.3333    0.3000
   Integrated=    2.1136E+00
 Relative magnetization (=zeta, between -1 and 1)
)     Maximum=    2.9513E-01  at reduced coord.    0.7333    0.7333    0.0000
)     Minimum=    3.2399E-04  at reduced coord.    0.6333    0.2333    0.1667
 Total charge density [el/Bohr^3]
)     Maximum=    3.6504E+00  at reduced coord.    0.8667    0.9333    0.9333
)     Minimum=    1.7801E-02  at reduced coord.    0.0000    0.0000    0.0000
   Integrated=    1.6000E+01
 x component of magnetization [el/Bohr^3]
)     Maximum=    8.5501E-04  at reduced coord.    0.1000    0.0667    0.9667
)     Minimum=   -8.5501E-04  at reduced coord.    0.1000    0.1333    0.0333
   Integrated=    0.0000E+00
 y component of magnetization [el/Bohr^3]
)     Maximum=    8.5501E-04  at reduced coord.    0.0667    0.1000    0.9667
)     Minimum=   -8.5501E-04  at reduced coord.    0.1333    0.1000    0.0333
   Integrated=    0.0000E+00
 z component of magnetization [el/Bohr^3]
)     Maximum=    7.6782E-01  at reduced coord.    0.9000    0.9000    0.0000
)     Minimum=   -2.2659E-03  at reduced coord.    0.7333    0.2333    0.5000
   Integrated=    2.0638E+00
 Magnetization (absolute value) [el/Bohr^3]
)     Maximum=    7.6782E-01  at reduced coord.    0.9000    0.9000    0.0000
)     Minimum=    1.4840E-05  at reduced coord.    0.8000    0.3333    0.3000
   Integrated=    2.1136E+00
 Relative magnetization (=zeta, between -1 and 1)
)     Maximum=    2.9513E-01  at reduced coord.    0.7333    0.7333    0.0000
)     Minimum=    3.2399E-04  at reduced coord.    0.6333    0.2333    0.1667
 ETOT 10  -122.68809904642    -8.735E-06 3.612E-03 7.357E-02
 scprqt: <Vxc>= -5.1478853E-01 hartree

 Pulay update with  7 previous iterations:
 mixing of old trial potential: alpha(m:m-4)=   2.42      -1.20     -0.291      0.510E-01  0.338E-01
{SCF_istep: 10 , Vnl|psi>: 5348 , wall_time: ' 12.40 [s] '} <<< TIME

 ITER STEP NUMBER    11
 newocc: new Fermi energy is       0.450028 , with nelect=     16.000000, Number of bisection calls: 49
 mkrho: echo density (plane-wave part only)
 Total charge density [el/Bohr^3]
)     Maximum=    3.6483E+00  at reduced coord.    0.9333    0.9333    0.8667
)     Minimum=    1.7797E-02  at reduced coord.    0.0000    0.0000    0.0000
   Integrated=    1.6000E+01
 x component of magnetization [el/Bohr^3]
)     Maximum=    8.7281E-04  at reduced coord.    0.1000    0.0667    0.9667
)     Minimum=   -8.7281E-04  at reduced coord.    0.1000    0.1333    0.0333
   Integrated=    0.0000E+00
 y component of magnetization [el/Bohr^3]
)     Maximum=    8.7281E-04  at reduced coord.    0.0667    0.1000    0.9667
)     Minimum=   -8.7281E-04  at reduced coord.    0.1333    0.1000    0.0333
   Integrated=    0.0000E+00
 z component of magnetization [el/Bohr^3]
)     Maximum=    7.6942E-01  at reduced coord.    0.9000    0.9000    0.0000
)     Minimum=   -2.2860E-03  at reduced coord.    0.7333    0.2333    0.5000
   Integrated=    2.0719E+00
 Magnetization (absolute value) [el/Bohr^3]
)     Maximum=    7.6942E-01  at reduced coord.    0.9000    0.9000    0.0000
)     Minimum=    1.4739E-05  at reduced coord.    0.6333    0.2333    0.1667
   Integrated=    2.1223E+00
 Relative magnetization (=zeta, between -1 and 1)
)     Maximum=    2.9566E-01  at reduced coord.    0.7333    0.7333    0.0000
)     Minimum=    3.0835E-04  at reduced coord.    0.6333    0.2333    0.1667
 Total charge density [el/Bohr^3]
)     Maximum=    3.6483E+00  at reduced coord.    0.9333    0.9333    0.8667
)     Minimum=    1.7797E-02  at reduced coord.    0.0000    0.0000    0.0000
   Integrated=    1.6000E+01
 x component of magnetization [el/Bohr^3]
)     Maximum=    8.7281E-04  at reduced coord.    0.1000    0.0667    0.9667
)     Minimum=   -8.7281E-04  at reduced coord.    0.1000    0.1333    0.0333
   Integrated=    0.0000E+00
 y component of magnetization [el/Bohr^3]
)     Maximum=    8.7281E-04  at reduced coord.    0.0667    0.1000    0.9667
)     Minimum=   -8.7281E-04  at reduced coord.    0.1333    0.1000    0.0333
   Integrated=    0.0000E+00
 z component of magnetization [el/Bohr^3]
)     Maximum=    7.6942E-01  at reduced coord.    0.9000    0.9000    0.0000
)     Minimum=   -2.2860E-03  at reduced coord.    0.7333    0.2333    0.5000
   Integrated=    2.0719E+00
 Magnetization (absolute value) [el/Bohr^3]
)     Maximum=    7.6942E-01  at reduced coord.    0.9000    0.9000    0.0000
)     Minimum=    1.4739E-05  at reduced coord.    0.6333    0.2333    0.1667
   Integrated=    2.1223E+00
 Relative magnetization (=zeta, between -1 and 1)
)     Maximum=    2.9566E-01  at reduced coord.    0.7333    0.7333    0.0000
)     Minimum=    3.0835E-04  at reduced coord.    0.6333    0.2333    0.1667
 ETOT 11  -122.68811136264    -1.232E-05 1.389E-03 4.813E-04
 scprqt: <Vxc>= -5.1491876E-01 hartree

 Pulay update with  7 previous iterations:
 mixing of old trial potential: alpha(m:m-4)=   1.54     -0.999      0.188      0.361     -0.624E-01
{SCF_istep: 11 , Vnl|psi>: 5436 , wall_time: ' 12.58 [s] '} <<< TIME

 ITER STEP NUMBER    12
 newocc: new Fermi energy is       0.449861 , with nelect=     16.000000, Number of bisection calls: 48
 mkrho: echo density (plane-wave part only)
 Total charge density [el/Bohr^3]
)     Maximum=    3.6483E+00  at reduced coord.    0.8667    0.9333    0.9333
)     Minimum=    1.7799E-02  at reduced coord.    0.0000    0.0000    0.0000
   Integrated=    1.6000E+01
 x component of magnetization [el/Bohr^3]
)     Maximum=    8.7591E-04  at reduced coord.    0.1000    0.0667    0.9667
[...]
                      -1.87500000E-01 -4.37500000E-01  1.87500000E-01
                      -3.12500000E-01 -3.12500000E-01  1.87500000E-01
                      -1.87500000E-01 -3.12500000E-01  1.87500000E-01
                      -1.87500000E-01 -1.87500000E-01  1.87500000E-01
                      -3.12500000E-01  3.12500000E-01  3.12500000E-01
                      -4.37500000E-01  4.37500000E-01  3.12500000E-01
              kpt2     1.25000000E-01  1.25000000E-01  1.25000000E-01
                       3.75000000E-01  1.25000000E-01  1.25000000E-01
                      -1.25000000E-01  1.25000000E-01  1.25000000E-01
                       3.75000000E-01  3.75000000E-01  1.25000000E-01
                      -3.75000000E-01  3.75000000E-01  1.25000000E-01
                      -1.25000000E-01  3.75000000E-01  1.25000000E-01
                      -3.75000000E-01 -3.75000000E-01  1.25000000E-01
                      -1.25000000E-01 -3.75000000E-01  1.25000000E-01
                      -1.25000000E-01 -1.25000000E-01  1.25000000E-01
                      -3.75000000E-01  3.75000000E-01  3.75000000E-01
                      -3.75000000E-01 -3.75000000E-01  3.75000000E-01
                       outvar_i_n : Printing only first  50 k-points.
           kptopt           4
         kptrlatt1       8    0    0      0    8    0      0    0    8
         kptrlatt2       4    0    0      0    4    0      0    0    4
          kptrlen1     3.75508615E+01
          kptrlen2     1.87754308E+01
          kssform1          1
          kssform2          3
P           mkmem1         56
P           mkmem2         11
            natom           1
            nband1         20
            nband2         30
         nbandkss1          0
         nbandkss2         26
           nbdbuf1          0
           nbdbuf2         10
           ndtset           2
            ngfft          30      30      30
             nkpt1         56
             nkpt2         11
           nspden           4
          nspinor           2
            nstep1        100
            nstep2        300
             nsym          16
           ntypat           1
              occ      1.000000  1.000000  1.000000  1.000000  1.000000  1.000000
                       1.000000  1.000000  1.000000  1.000000  1.000000  1.000000
                       1.000000  1.000000  1.000000  1.000000  1.000000  0.537983
                       0.000000  0.000000
                       1.000000  1.000000  1.000000  1.000000  1.000000  1.000000
                       1.000000  1.000000  1.000000  1.000000  1.000000  1.000000
                       1.000000  1.000000  1.000000  1.000000  1.000000  0.000000
                       0.000000  0.000000
                       1.000000  1.000000  1.000000  1.000000  1.000000  1.000000
                       1.000000  1.000000  1.000000  1.000000  1.000000  1.000000
                       1.000000  1.000000  1.000000  1.000000  0.000000  0.000000
                       0.000000  0.000000
                       1.000000  1.000000  1.000000  1.000000  1.000000  1.000000
                       1.000000  1.000000  1.000000  1.000000  1.000000  1.000000
                       1.000000  1.000000  1.000000  1.000000  0.000000  0.000000
                       0.000000  0.000000
                       1.000000  1.000000  1.000000  1.000000  1.000000  1.000000
                       1.000000  1.000000  1.000000  1.000000  1.000000  1.000000
                       1.000000  1.000000  1.000000  1.000000  1.000000  1.000000
                       0.000000  0.000000
                       1.000000  1.000000  1.000000  1.000000  1.000000  1.000000
                       1.000000  1.000000  1.000000  1.000000  1.000000  1.000000
                       1.000000  1.000000  1.000000  1.000000  0.000000  0.000000
                       0.000000  0.000000
                       1.000000  1.000000  1.000000  1.000000  1.000000  1.000000
                       1.000000  1.000000  1.000000  1.000000  1.000000  1.000000
                       1.000000  1.000000  1.000000  1.000000  0.000000  0.000000
                       0.000000  0.000000
                       1.000000  1.000000  1.000000  1.000000  1.000000  1.000000
                       1.000000  1.000000  1.000000  1.000000  1.000000  1.000000
                       1.000000  1.000000  1.000000  1.000000  0.000000  0.000000
                       0.000000  0.000000
                       1.000000  1.000000  1.000000  1.000000  1.000000  1.000000
                       1.000000  1.000000  1.000000  1.000000  1.000000  1.000000
                       1.000000  1.000000  1.000000  1.000000  0.000000  0.000000
                       0.000000  0.000000
                       1.000000  1.000000  1.000000  1.000000  1.000000  1.000000
                       1.000000  1.000000  1.000000  1.000000  1.000000  1.000000
                       1.000000  1.000000  1.000000  1.000000  1.000000  0.000000
                       0.000000  0.000000
                       1.000000  1.000000  1.000000  1.000000  1.000000  1.000000
                       1.000000  1.000000  1.000000  1.000000  1.000000  1.000000
                       1.000000  1.000000  1.000000  1.000000  1.000000  0.215448
                       0.000000  0.000000
                       1.000000  1.000000  1.000000  1.000000  1.000000  1.000000
                       1.000000  1.000000  1.000000  1.000000  1.000000  1.000000
                       1.000000  1.000000  1.000000  1.000000  1.000000  0.218788
                       0.000000  0.000000
                       1.000000  1.000000  1.000000  1.000000  1.000000  1.000000
                       1.000000  1.000000  1.000000  1.000000  1.000000  1.000000
                       1.000000  1.000000  1.000000  1.000000  0.000000  0.000000
                       0.000000  0.000000
                       1.000000  1.000000  1.000000  1.000000  1.000000  1.000000
                       1.000000  1.000000  1.000000  1.000000  1.000000  1.000000
                       1.000000  1.000000  1.000000  1.000000  0.000000  0.000000
                       0.000000  0.000000
                       1.000000  1.000000  1.000000  1.000000  1.000000  1.000000
                       1.000000  1.000000  1.000000  1.000000  1.000000  1.000000
                       1.000000  1.000000  1.000000  1.000000  0.000000  0.000000
                       0.000000  0.000000
                       1.000000  1.000000  1.000000  1.000000  1.000000  1.000000
                       1.000000  1.000000  1.000000  1.000000  1.000000  1.000000
                       1.000000  1.000000  1.000000  1.000000  1.000000  0.000000
                       0.000000  0.000000
                       1.000000  1.000000  1.000000  1.000000  1.000000  1.000000
                       1.000000  1.000000  1.000000  1.000000  1.000000  1.000000
                       1.000000  1.000000  1.000000  1.000000  1.000000  0.000000
                       0.000000  0.000000
                       1.000000  1.000000  1.000000  1.000000  1.000000  1.000000
                       1.000000  1.000000  1.000000  1.000000  1.000000  1.000000
                       1.000000  1.000000  1.000000  1.000000  1.000000  0.000000
                       0.000000  0.000000
                       1.000000  1.000000  1.000000  1.000000  1.000000  1.000000
                       1.000000  1.000000  1.000000  1.000000  1.000000  1.000000
                       1.000000  1.000000  1.000000  1.000000  0.000000  0.000000
                       0.000000  0.000000
                       1.000000  1.000000  1.000000  1.000000  1.000000  1.000000
                       1.000000  1.000000  1.000000  1.000000  1.000000  1.000000
                       1.000000  1.000000  1.000000  0.722030  0.000030  0.000000
                       0.000000  0.000000
                       1.000000  1.000000  1.000000  1.000000  1.000000  1.000000
                       1.000000  1.000000  1.000000  1.000000  1.000000  1.000000
                       1.000000  1.000000  1.000000  1.000000  0.000000  0.000000
                       0.000000  0.000000
                       1.000000  1.000000  1.000000  1.000000  1.000000  1.000000
                       1.000000  1.000000  1.000000  1.000000  1.000000  1.000000
                       1.000000  1.000000  1.000000  1.000000  0.000000  0.000000
                       0.000000  0.000000
                       1.000000  1.000000  1.000000  1.000000  1.000000  1.000000
                       1.000000  1.000000  1.000000  1.000000  1.000000  1.000000
                       1.000000  1.000000  1.000000  0.728874  0.000027  0.000000
                       0.000000  0.000000
                       1.000000  1.000000  1.000000  1.000000  1.000000  1.000000
                       1.000000  1.000000  1.000000  1.000000  1.000000  1.000000
                       1.000000  1.000000  1.000000  0.725880  0.000000  0.000000
                       0.000000  0.000000
                       1.000000  1.000000  1.000000  1.000000  1.000000  1.000000
                       1.000000  1.000000  1.000000  1.000000  1.000000  1.000000
                       1.000000  1.000000  1.000000  0.999999  0.000000  0.000000
                       0.000000  0.000000
                       1.000000  1.000000  1.000000  1.000000  1.000000  1.000000
                       1.000000  1.000000  1.000000  1.000000  1.000000  1.000000
                       1.000000  1.000000  1.000000  0.725676  0.000000  0.000000
                       0.000000  0.000000
                       1.000000  1.000000  1.000000  1.000000  1.000000  1.000000
                       1.000000  1.000000  1.000000  1.000000  1.000000  1.000000
                       1.000000  1.000000  1.000000  0.725863  0.000029  0.000000
                       0.000000  0.000000
                       1.000000  1.000000  1.000000  1.000000  1.000000  1.000000
                       1.000000  1.000000  1.000000  1.000000  1.000000  1.000000
                       1.000000  1.000000  1.000000  0.999999  0.000000  0.000000
                       0.000000  0.000000
                       1.000000  1.000000  1.000000  1.000000  1.000000  1.000000
                       1.000000  1.000000  1.000000  1.000000  1.000000  1.000000
                       1.000000  1.000000  1.000000  1.000000  0.000000  0.000000
                       0.000000  0.000000
                       1.000000  1.000000  1.000000  1.000000  1.000000  1.000000
                       1.000000  1.000000  1.000000  1.000000  1.000000  1.000000
                       1.000000  1.000000  1.000000  1.000000  1.000000  0.000000
                       0.000000  0.000000
                       1.000000  1.000000  1.000000  1.000000  1.000000  1.000000
                       1.000000  1.000000  1.000000  1.000000  1.000000  1.000000
                       1.000000  1.000000  1.000000  1.000000  1.000000  0.000000
                       0.000000  0.000000
                       1.000000  1.000000  1.000000  1.000000  1.000000  1.000000
                       1.000000  1.000000  1.000000  1.000000  1.000000  1.000000
                       1.000000  1.000000  1.000000  1.000000  1.000000  0.221906
                       0.000000  0.000000
                       1.000000  1.000000  1.000000  1.000000  1.000000  1.000000
                       1.000000  1.000000  1.000000  1.000000  1.000000  1.000000
                       1.000000  1.000000  1.000000  1.000000  1.000000  1.000000
                       0.000000  0.000000
                       1.000000  1.000000  1.000000  1.000000  1.000000  1.000000
                       1.000000  1.000000  1.000000  1.000000  1.000000  1.000000
                       1.000000  1.000000  1.000000  1.000000  0.000000  0.000000
                       0.000000  0.000000
                       1.000000  1.000000  1.000000  1.000000  1.000000  1.000000
                       1.000000  1.000000  1.000000  1.000000  1.000000  1.000000
                       1.000000  1.000000  1.000000  1.000000  0.000000  0.000000
                       0.000000  0.000000
                       1.000000  1.000000  1.000000  1.000000  1.000000  1.000000
                       1.000000  1.000000  1.000000  1.000000  1.000000  1.000000
                       1.000000  1.000000  1.000000  1.000000  1.000000  0.998338
                       0.124699  0.000000
                       1.000000  1.000000  1.000000  1.000000  1.000000  1.000000
                       1.000000  1.000000  1.000000  1.000000  1.000000  1.000000
                       1.000000  1.000000  1.000000  1.000000  0.000000  0.000000
                       0.000000  0.000000
                       1.000000  1.000000  1.000000  1.000000  1.000000  1.000000
                       1.000000  1.000000  1.000000  1.000000  1.000000  1.000000
                       1.000000  1.000000  1.000000  1.000000  0.592854  0.077527
                       0.000000  0.000000
                       1.000000  1.000000  1.000000  1.000000  1.000000  1.000000
                       1.000000  1.000000  1.000000  1.000000  1.000000  1.000000
                       1.000000  1.000000  1.000000  1.000000  0.621209  0.066217
                       0.000000  0.000000
                       1.000000  1.000000  1.000000  1.000000  1.000000  1.000000
                       1.000000  1.000000  1.000000  1.000000  1.000000  1.000000
                       1.000000  1.000000  1.000000  0.000011  0.000000  0.000000
                       0.000000  0.000000
                       1.000000  1.000000  1.000000  1.000000  1.000000  1.000000
                       1.000000  1.000000  1.000000  1.000000  1.000000  1.000000
                       1.000000  1.000000  1.000000  0.977182  0.000000  0.000000
                       0.000000  0.000000
                       1.000000  1.000000  1.000000  1.000000  1.000000  1.000000
                       1.000000  1.000000  1.000000  1.000000  1.000000  1.000000
                       1.000000  1.000000  1.000000  0.000011  0.000000  0.000000
                       0.000000  0.000000
                       1.000000  1.000000  1.000000  1.000000  1.000000  1.000000
                       1.000000  1.000000  1.000000  1.000000  1.000000  1.000000
                       1.000000  1.000000  1.000000  0.117023  0.000000  0.000000
                       0.000000  0.000000
                       1.000000  1.000000  1.000000  1.000000  1.000000  1.000000
                       1.000000  1.000000  1.000000  1.000000  1.000000  1.000000
                       1.000000  1.000000  1.000000  0.116259  0.000000  0.000000
                       0.000000  0.000000
                       1.000000  1.000000  1.000000  1.000000  1.000000  1.000000
                       1.000000  1.000000  1.000000  1.000000  1.000000  1.000000
                       1.000000  1.000000  1.000000  0.000011  0.000000  0.000000
                       0.000000  0.000000
                       1.000000  1.000000  1.000000  1.000000  1.000000  1.000000
                       1.000000  1.000000  1.000000  1.000000  1.000000  1.000000
                       1.000000  1.000000  1.000000  0.976849  0.000000  0.000000
                       0.000000  0.000000
                       1.000000  1.000000  1.000000  1.000000  1.000000  1.000000
                       1.000000  1.000000  1.000000  1.000000  1.000000  1.000000
                       1.000000  1.000000  1.000000  1.000000  0.622136  0.066485
                       0.000000  0.000000
                       1.000000  1.000000  1.000000  1.000000  1.000000  1.000000
                       1.000000  1.000000  1.000000  1.000000  1.000000  1.000000
                       1.000000  1.000000  1.000000  1.000000  1.000000  0.998718
                       0.116577  0.000000
                       1.000000  1.000000  1.000000  1.000000  1.000000  1.000000
                       1.000000  1.000000  1.000000  1.000000  1.000000  1.000000
                       1.000000  1.000000  1.000000  0.003218  0.002993  0.000000
                       0.000000  0.000000
                       1.000000  1.000000  1.000000  1.000000  1.000000  1.000000
                       1.000000  1.000000  1.000000  1.000000  1.000000  1.000000
                       1.000000  1.000000  0.011482  0.000002  0.000000  0.000000
                       0.000000  0.000000
                       prtocc : prtvol=0, do not print more k-points.
           occopt           7
          prtkbff           1
        ptgroupma          26
            rprim     -5.0000000000E-01  5.0000000000E-01  5.0000000000E-01
                       5.0000000000E-01 -5.0000000000E-01  5.0000000000E-01
                       5.0000000000E-01  5.0000000000E-01 -5.0000000000E-01
           shiftk      5.00000000E-01  5.00000000E-01  5.00000000E-01
          spgroup         139
           spinat      0.0000000000E+00  0.0000000000E+00  5.0000000000E+00
           strten1     2.6708666782E-02  2.6708666782E-02  2.6707628703E-02
                       0.0000000000E+00  0.0000000000E+00  0.0000000000E+00
           symafm        1   -1   -1    1    1   -1   -1    1    1   -1
                        -1    1    1   -1   -1    1
        symmorphi1          1
        symmorphi2          0
           symrel      1  0  0   0  1  0   0  0  1      -1  0  0   0 -1  0   0  0 -1
                      -1 -1 -1   0  0  1   0  1  0       1  1  1   0  0 -1   0 -1  0
                       0  1  0   1  0  0  -1 -1 -1       0 -1  0  -1  0  0   1  1  1
                       0  0  1  -1 -1 -1   1  0  0       0  0 -1   1  1  1  -1  0  0
                       0  1  0   1  0  0   0  0  1       0 -1  0  -1  0  0   0  0 -1
                      -1 -1 -1   0  0  1   1  0  0       1  1  1   0  0 -1  -1  0  0
                       1  0  0   0  1  0  -1 -1 -1      -1  0  0   0 -1  0   1  1  1
                       0  0  1  -1 -1 -1   0  1  0       0  0 -1   1  1  1   0 -1  0
           toldfe1     1.00000000E-08 Hartree
           toldfe2     0.00000000E+00 Hartree
           tolwfr1     0.00000000E+00
           tolwfr2     1.00000000E-10
           tsmear      5.00000000E-03 Hartree
            typat      1
              wtk1       0.01563    0.03125    0.03125    0.01563    0.00781    0.01563
                         0.03125    0.03125    0.03125    0.01563    0.01563    0.01563
                         0.01563    0.03125    0.01563    0.01563    0.03125    0.01563
                         0.00781    0.01563    0.03125    0.03125    0.01563    0.01563
                         0.03125    0.03125    0.01563    0.01563    0.03125    0.01563
                         0.01563    0.01563    0.00391    0.01563    0.01563    0.00781
                         0.00781    0.01563    0.01563    0.01563    0.03125    0.01563
                         0.01563    0.03125    0.01563    0.01563    0.01563    0.00391
                         0.00781    0.01563
              wtk2       0.12500    0.12500    0.06250    0.06250    0.12500    0.12500
                         0.12500    0.12500    0.03125    0.06250    0.03125
                       outvars : Printing only first  50 k-points.
            znucl       26.00000

================================================================================
  
 Proc.   0 individual time (sec): cpu=        234.4  wall=        238.5

 Calculation completed.
.Delivered   5 WARNINGs and   8 COMMENTs to log file.

--- !FinalSummary
program: abinit
version: 9.7.4
start_datetime: Sun Feb 11 22:42:22 2024
end_datetime: Sun Feb 11 22:46:20 2024
overall_cpu_time:         234.4
overall_wall_time:         238.5
exit_requested_by_user: no 
timelimit: 0
pseudos: 
    Fe  : 6b3c50496c2bd51adb58e401ac55969f
usepaw: 0
mpi_procs: 1
omp_threads: 1
num_warnings: 5
num_comments: 8
...
