
.Version 9.7.4 of ABINIT 
.(MPI version, prepared for a x86_64_linux_gnu9.4 computer) 

.Copyright (C) 1998-2022 ABINIT group . 
 ABINIT comes with ABSOLUTELY NO WARRANTY.
 It is free software, and you are welcome to redistribute it
 under certain conditions (GNU General Public License,
 see ~abinit/COPYING or http://www.gnu.org/copyleft/gpl.txt).

 ABINIT is a project of the Universite Catholique de Louvain,
 Corning Inc. and other collaborators, see ~abinit/doc/developers/contributors.txt .
 Please read https://docs.abinit.org/theory/acknowledgments for suggested
 acknowledgments of the ABINIT effort.
 For more information, see https://www.abinit.org .

.Starting date : Sun 11 Feb 2024.
- ( at 11h27 )
  
- input  file    -> Fe_noSO.in
- output file    -> Fe_e50_k4_noSO.out
- root for input  files -> Fe_e50_k4_noSO.i
- root for output files -> Fe_e50_k4_noSO.o


 DATASET    1 : space group Im -3 m (#229); Bravais cI (body-center cubic)
================================================================================
 Values of the parameters that define the memory need for DATASET  1.
     intxc =       0    ionmov =       0      iscf =       7    lmnmax =       5
     lnmax =       5     mgfft =      30  mpssoang =       3    mqgrid =    3001
     natom =       1  nloc_mem =       1    nspden =       2   nspinor =       1
    nsppol =       2      nsym =      48    n1xccc =       0    ntypat =       1
    occopt =       7   xclevel =       1
-    mband =          19        mffmem =           1         mkmem =          26
       mpw =        1365          nfft =       27000          nkpt =          26
================================================================================
P This job should need less than                      34.860 Mbytes of memory.
  Rough estimation (10% accuracy) of disk space for files :
_ WF disk file :     20.580 Mbytes ; DEN or POT disk file :      0.414 Mbytes.
================================================================================


 DATASET    2 : space group Im -3 m (#229); Bravais cI (body-center cubic)
================================================================================
 Values of the parameters that define the memory need for DATASET  2.
     intxc =       0    ionmov =       0      iscf =      -2    lmnmax =       5
     lnmax =       5     mgfft =      30  mpssoang =       3    mqgrid =    3001
     natom =       1  nloc_mem =       1    nspden =       2   nspinor =       1
    nsppol =       2      nsym =      48    n1xccc =       0    ntypat =       1
    occopt =       7   xclevel =       1
-    mband =          15        mffmem =           1         mkmem =           6
       mpw =        1358          nfft =       27000          nkpt =           6
================================================================================
P This job should need less than                      10.997 Mbytes of memory.
  Rough estimation (10% accuracy) of disk space for files :
_ WF disk file :      3.732 Mbytes ; DEN or POT disk file :      0.414 Mbytes.
================================================================================


 DATASET    3 : space group Im -3 m (#229); Bravais cI (body-center cubic)
================================================================================
 Values of the parameters that define the memory need for DATASET  3.
     intxc =       0    ionmov =       0      iscf =      -2    lmnmax =       5
     lnmax =       5     mgfft =      30  mpssoang =       3    mqgrid =    3001
     natom =       1  nloc_mem =       1    nspden =       2   nspinor =       1
    nsppol =       2      nsym =      48    n1xccc =       0    ntypat =       1
    occopt =       7   xclevel =       1
-    mband =          15        mffmem =           1         mkmem =           6
       mpw =        1358          nfft =       27000          nkpt =           6
================================================================================
P This job should need less than                      10.997 Mbytes of memory.
  Rough estimation (10% accuracy) of disk space for files :
_ WF disk file :      3.732 Mbytes ; DEN or POT disk file :      0.414 Mbytes.
================================================================================


 DATASET    4 : space group Im -3 m (#229); Bravais cI (body-center cubic)
================================================================================
 Values of the parameters that define the memory need for DATASET  4.
     intxc =       0    ionmov =       0      iscf =      -2    lmnmax =       5
     lnmax =       5     mgfft =      30  mpssoang =       3    mqgrid =    3001
     natom =       1  nloc_mem =       1    nspden =       2   nspinor =       1
    nsppol =       2      nsym =      48    n1xccc =       0    ntypat =       1
    occopt =       7   xclevel =       1
-    mband =          15        mffmem =           1         mkmem =           6
       mpw =        1358          nfft =       27000          nkpt =           6
================================================================================
P This job should need less than                      10.997 Mbytes of memory.
  Rough estimation (10% accuracy) of disk space for files :
_ WF disk file :      3.732 Mbytes ; DEN or POT disk file :      0.414 Mbytes.
================================================================================


 DATASET    5 : space group Im -3 m (#229); Bravais cI (body-center cubic)
================================================================================
 Values of the parameters that define the memory need for DATASET  5.
     intxc =       0    ionmov =       0      iscf =      -2    lmnmax =       5
     lnmax =       5     mgfft =      30  mpssoang =       3    mqgrid =    3001
     natom =       1  nloc_mem =       1    nspden =       2   nspinor =       1
    nsppol =       2      nsym =      48    n1xccc =       0    ntypat =       1
    occopt =       7   xclevel =       1
-    mband =          15        mffmem =           1         mkmem =           6
       mpw =        1358          nfft =       27000          nkpt =           6
================================================================================
P This job should need less than                      10.997 Mbytes of memory.
  Rough estimation (10% accuracy) of disk space for files :
_ WF disk file :      3.732 Mbytes ; DEN or POT disk file :      0.414 Mbytes.
================================================================================


 DATASET    6 : space group Im -3 m (#229); Bravais cI (body-center cubic)
================================================================================
 Values of the parameters that define the memory need for DATASET  6.
     intxc =       0    ionmov =       0      iscf =      -2    lmnmax =       5
     lnmax =       5     mgfft =      30  mpssoang =       3    mqgrid =    3001
     natom =       1  nloc_mem =       1    nspden =       2   nspinor =       1
    nsppol =       2      nsym =      48    n1xccc =       0    ntypat =       1
    occopt =       7   xclevel =       1
-    mband =          15        mffmem =           1         mkmem =         140
       mpw =        1377          nfft =       27000          nkpt =         140
================================================================================
P This job should need less than                      98.153 Mbytes of memory.
  Rough estimation (10% accuracy) of disk space for files :
_ WF disk file :     88.250 Mbytes ; DEN or POT disk file :      0.414 Mbytes.
================================================================================

--------------------------------------------------------------------------------
------------- Echo of variables that govern the present computation ------------
--------------------------------------------------------------------------------
-
- outvars: echo of selected default values                                      
-   iomode0 =  0 , fftalg0 =112 , wfoptalg0 =  0
-
- outvars: echo of global parameters not present in the input file              
-  max_nthreads =    1
-
 -outvars: echo values of preprocessed input variables --------
-          iomode           3
            acell      5.4200000000E+00  5.4200000000E+00  5.4200000000E+00 Bohr
              amu      5.58470000E+01
             ecut      5.00000000E+01 Hartree
           enunit           1
-          fftalg         112
           getden1          0
           getden2          1
           getden3          1
           getden4          1
           getden5          1
           getden6          1
             iscf1          7
             iscf2         -2
             iscf3         -2
             iscf4         -2
             iscf5         -2
             iscf6         -2
           jdtset        1    2    3    4    5    6
              kpt1     6.25000000E-02  6.25000000E-02  6.25000000E-02
                       1.87500000E-01  6.25000000E-02  6.25000000E-02
                       3.12500000E-01  6.25000000E-02  6.25000000E-02
                       4.37500000E-01  6.25000000E-02  6.25000000E-02
                      -6.25000000E-02  6.25000000E-02  6.25000000E-02
                       1.87500000E-01  1.87500000E-01  6.25000000E-02
                       3.12500000E-01  1.87500000E-01  6.25000000E-02
                      -1.87500000E-01  1.87500000E-01  6.25000000E-02
                       3.12500000E-01  3.12500000E-01  6.25000000E-02
                      -3.12500000E-01  3.12500000E-01  6.25000000E-02
                      -1.87500000E-01  3.12500000E-01  6.25000000E-02
                      -4.37500000E-01  4.37500000E-01  6.25000000E-02
                      -3.12500000E-01  4.37500000E-01  6.25000000E-02
                      -4.37500000E-01 -4.37500000E-01  6.25000000E-02
                      -3.12500000E-01 -4.37500000E-01  6.25000000E-02
                       1.87500000E-01  1.87500000E-01  1.87500000E-01
                       3.12500000E-01  1.87500000E-01  1.87500000E-01
                      -1.87500000E-01  1.87500000E-01  1.87500000E-01
                      -3.12500000E-01  3.12500000E-01  1.87500000E-01
                      -4.37500000E-01  4.37500000E-01  1.87500000E-01
                      -3.12500000E-01  4.37500000E-01  1.87500000E-01
                      -4.37500000E-01 -4.37500000E-01  1.87500000E-01
                      -3.12500000E-01  3.12500000E-01  3.12500000E-01
                      -4.37500000E-01  4.37500000E-01  3.12500000E-01
                      -4.37500000E-01 -4.37500000E-01  3.12500000E-01
                      -4.37500000E-01  4.37500000E-01  4.37500000E-01
              kpt2     1.25000000E-01  1.25000000E-01  1.25000000E-01
                       3.75000000E-01  1.25000000E-01  1.25000000E-01
                      -1.25000000E-01  1.25000000E-01  1.25000000E-01
                      -3.75000000E-01  3.75000000E-01  1.25000000E-01
                      -3.75000000E-01 -3.75000000E-01  1.25000000E-01
                      -3.75000000E-01  3.75000000E-01  3.75000000E-01
              kpt3     1.24978438E-01  1.25021562E-01  1.25021577E-01
                       3.74978423E-01  1.25021562E-01  1.25021577E-01
                      -1.25021562E-01  1.25021562E-01  1.25021562E-01
                      -3.75021577E-01  3.75021577E-01  1.25021577E-01
                      -3.75021577E-01 -3.74978423E-01  1.25021577E-01
                      -3.75021577E-01  3.75021577E-01  3.75021577E-01
              kpt4     1.25021562E-01  1.24978438E-01  1.25021577E-01
                       3.75021577E-01  1.24978423E-01  1.25021577E-01
                      -1.24978445E-01  1.24978445E-01  1.25021562E-01
                      -3.74978423E-01  3.74978423E-01  1.25021577E-01
                      -3.74978423E-01 -3.75021577E-01  1.25021577E-01
                      -3.74978423E-01  3.74978423E-01  3.75021577E-01
              kpt5     1.25021562E-01  1.25021562E-01  1.24978438E-01
                       3.75021577E-01  1.25021577E-01  1.24978423E-01
                      -1.24978445E-01  1.25021562E-01  1.24978445E-01
                      -3.74978423E-01  3.75021577E-01  1.24978431E-01
                      -3.74978423E-01 -3.74978423E-01  1.24978423E-01
                      -3.74978423E-01  3.75021577E-01  3.74978423E-01
              kpt6     3.12500000E-02  3.12500000E-02  3.12500000E-02
                       9.37500000E-02  3.12500000E-02  3.12500000E-02
                       1.56250000E-01  3.12500000E-02  3.12500000E-02
                       2.18750000E-01  3.12500000E-02  3.12500000E-02
                       2.81250000E-01  3.12500000E-02  3.12500000E-02
                       3.43750000E-01  3.12500000E-02  3.12500000E-02
                       4.06250000E-01  3.12500000E-02  3.12500000E-02
                       4.68750000E-01  3.12500000E-02  3.12500000E-02
                      -3.12500000E-02  3.12500000E-02  3.12500000E-02
                       9.37500000E-02  9.37500000E-02  3.12500000E-02
                       1.56250000E-01  9.37500000E-02  3.12500000E-02
                       2.18750000E-01  9.37500000E-02  3.12500000E-02
                       2.81250000E-01  9.37500000E-02  3.12500000E-02
                       3.43750000E-01  9.37500000E-02  3.12500000E-02
                       4.06250000E-01  9.37500000E-02  3.12500000E-02
                      -9.37500000E-02  9.37500000E-02  3.12500000E-02
                       1.56250000E-01  1.56250000E-01  3.12500000E-02
                       2.18750000E-01  1.56250000E-01  3.12500000E-02
                       2.81250000E-01  1.56250000E-01  3.12500000E-02
                       3.43750000E-01  1.56250000E-01  3.12500000E-02
                       4.06250000E-01  1.56250000E-01  3.12500000E-02
                      -1.56250000E-01  1.56250000E-01  3.12500000E-02
                      -9.37500000E-02  1.56250000E-01  3.12500000E-02
                       2.18750000E-01  2.18750000E-01  3.12500000E-02
                       2.81250000E-01  2.18750000E-01  3.12500000E-02
                       3.43750000E-01  2.18750000E-01  3.12500000E-02
                      -2.18750000E-01  2.18750000E-01  3.12500000E-02
                      -1.56250000E-01  2.18750000E-01  3.12500000E-02
                       2.81250000E-01  2.81250000E-01  3.12500000E-02
                       3.43750000E-01  2.81250000E-01  3.12500000E-02
                      -2.81250000E-01  2.81250000E-01  3.12500000E-02
                      -2.18750000E-01  2.81250000E-01  3.12500000E-02
                      -1.56250000E-01  2.81250000E-01  3.12500000E-02
                      -3.43750000E-01  3.43750000E-01  3.12500000E-02
                      -2.81250000E-01  3.43750000E-01  3.12500000E-02
                      -2.18750000E-01  3.43750000E-01  3.12500000E-02
                      -4.06250000E-01  4.06250000E-01  3.12500000E-02
                      -3.43750000E-01  4.06250000E-01  3.12500000E-02
                      -2.81250000E-01  4.06250000E-01  3.12500000E-02
                      -2.18750000E-01  4.06250000E-01  3.12500000E-02
                      -4.68750000E-01  4.68750000E-01  3.12500000E-02
                      -4.06250000E-01  4.68750000E-01  3.12500000E-02
                      -3.43750000E-01  4.68750000E-01  3.12500000E-02
                      -2.81250000E-01  4.68750000E-01  3.12500000E-02
                      -4.68750000E-01 -4.68750000E-01  3.12500000E-02
                      -4.06250000E-01 -4.68750000E-01  3.12500000E-02
                      -3.43750000E-01 -4.68750000E-01  3.12500000E-02
                      -2.81250000E-01 -4.68750000E-01  3.12500000E-02
                      -4.06250000E-01 -4.06250000E-01  3.12500000E-02
                      -3.43750000E-01 -4.06250000E-01  3.12500000E-02
                       outvar_i_n : Printing only first  50 k-points.
           kptopt1          4
           kptopt2          4
           kptopt3          0
           kptopt4          0
           kptopt5          0
           kptopt6          4
         kptrlatt1       8    0    0      0    8    0      0    0    8
         kptrlatt2       4    0    0      0    4    0      0    0    4
         kptrlatt6      16    0    0      0   16    0      0    0   16
          kptrlen1     3.75508615E+01
          kptrlen2     1.87754308E+01
          kptrlen3     3.00000000E+01
          kptrlen4     3.00000000E+01
          kptrlen5     3.00000000E+01
          kptrlen6     7.51017230E+01
          kssform1          1
          kssform2          3
          kssform3          3
          kssform4          3
          kssform5          3
          kssform6          3
P           mkmem1         26
P           mkmem2          6
P           mkmem3          6
P           mkmem4          6
P           mkmem5          6
P           mkmem6        140
            natom           1
            nband1         19
            nband2         15
            nband3         15
            nband4         15
            nband5         15
            nband6         15
         nbandkss1          0
         nbandkss2         13
         nbandkss3         13
         nbandkss4         13
         nbandkss5         13
         nbandkss6         13
           nbdbuf1          0
           nbdbuf2         10
           nbdbuf3         10
           nbdbuf4         10
           nbdbuf5         10
           nbdbuf6         10
           ndtset           6
            ngfft          30      30      30
             nkpt1         26
             nkpt2          6
             nkpt3          6
             nkpt4          6
             nkpt5          6
             nkpt6        140
           nspden           2
           nsppol           2
            nstep1        100
            nstep2        300
            nstep3        300
            nstep4        300
            nstep5        300
            nstep6        300
             nsym          48
           ntypat           1
              occ      1.000000  1.000000  1.000000  1.000000  1.000000  1.000000
                       1.000000  1.000000  0.000000  0.000000  0.000000  0.000000
                       0.000000  0.000000  0.000000  0.000000  0.000000  0.000000
                       0.000000
                       1.000000  1.000000  1.000000  1.000000  1.000000  1.000000
                       1.000000  1.000000  0.000000  0.000000  0.000000  0.000000
                       0.000000  0.000000  0.000000  0.000000  0.000000  0.000000
                       0.000000
                       1.000000  1.000000  1.000000  1.000000  1.000000  1.000000
                       1.000000  1.000000  0.000000  0.000000  0.000000  0.000000
                       0.000000  0.000000  0.000000  0.000000  0.000000  0.000000
                       0.000000
                       1.000000  1.000000  1.000000  1.000000  1.000000  1.000000
                       1.000000  1.000000  0.000000  0.000000  0.000000  0.000000
                       0.000000  0.000000  0.000000  0.000000  0.000000  0.000000
                       0.000000
                       1.000000  1.000000  1.000000  1.000000  1.000000  1.000000
                       1.000000  1.000000  0.000000  0.000000  0.000000  0.000000
                       0.000000  0.000000  0.000000  0.000000  0.000000  0.000000
                       0.000000
                       1.000000  1.000000  1.000000  1.000000  1.000000  1.000000
                       1.000000  1.000000  0.000000  0.000000  0.000000  0.000000
                       0.000000  0.000000  0.000000  0.000000  0.000000  0.000000
                       0.000000
                       1.000000  1.000000  1.000000  1.000000  1.000000  1.000000
                       1.000000  1.000000  0.000000  0.000000  0.000000  0.000000
                       0.000000  0.000000  0.000000  0.000000  0.000000  0.000000
                       0.000000
                       1.000000  1.000000  1.000000  1.000000  1.000000  1.000000
                       1.000000  1.000000  0.000000  0.000000  0.000000  0.000000
                       0.000000  0.000000  0.000000  0.000000  0.000000  0.000000
                       0.000000
                       1.000000  1.000000  1.000000  1.000000  1.000000  1.000000
                       1.000000  1.000000  0.000000  0.000000  0.000000  0.000000
                       0.000000  0.000000  0.000000  0.000000  0.000000  0.000000
                       0.000000
                       1.000000  1.000000  1.000000  1.000000  1.000000  1.000000
                       1.000000  1.000000  0.000000  0.000000  0.000000  0.000000
                       0.000000  0.000000  0.000000  0.000000  0.000000  0.000000
                       0.000000
                       1.000000  1.000000  1.000000  1.000000  1.000000  1.000000
                       1.000000  1.000000  0.000000  0.000000  0.000000  0.000000
                       0.000000  0.000000  0.000000  0.000000  0.000000  0.000000
                       0.000000
                       1.000000  1.000000  1.000000  1.000000  1.000000  1.000000
                       1.000000  1.000000  0.000000  0.000000  0.000000  0.000000
                       0.000000  0.000000  0.000000  0.000000  0.000000  0.000000
                       0.000000
                       1.000000  1.000000  1.000000  1.000000  1.000000  1.000000
                       1.000000  1.000000  0.000000  0.000000  0.000000  0.000000
                       0.000000  0.000000  0.000000  0.000000  0.000000  0.000000
                       0.000000
                       1.000000  1.000000  1.000000  1.000000  1.000000  1.000000
                       1.000000  1.000000  0.000000  0.000000  0.000000  0.000000
                       0.000000  0.000000  0.000000  0.000000  0.000000  0.000000
                       0.000000
                       1.000000  1.000000  1.000000  1.000000  1.000000  1.000000
                       1.000000  1.000000  0.000000  0.000000  0.000000  0.000000
                       0.000000  0.000000  0.000000  0.000000  0.000000  0.000000
                       0.000000
                       1.000000  1.000000  1.000000  1.000000  1.000000  1.000000
                       1.000000  1.000000  0.000000  0.000000  0.000000  0.000000
                       0.000000  0.000000  0.000000  0.000000  0.000000  0.000000
                       0.000000
                       1.000000  1.000000  1.000000  1.000000  1.000000  1.000000
                       1.000000  1.000000  0.000000  0.000000  0.000000  0.000000
                       0.000000  0.000000  0.000000  0.000000  0.000000  0.000000
                       0.000000
                       1.000000  1.000000  1.000000  1.000000  1.000000  1.000000
                       1.000000  1.000000  0.000000  0.000000  0.000000  0.000000
                       0.000000  0.000000  0.000000  0.000000  0.000000  0.000000
                       0.000000
                       1.000000  1.000000  1.000000  1.000000  1.000000  1.000000
                       1.000000  1.000000  0.000000  0.000000  0.000000  0.000000
                       0.000000  0.000000  0.000000  0.000000  0.000000  0.000000
                       0.000000
                       1.000000  1.000000  1.000000  1.000000  1.000000  1.000000
                       1.000000  1.000000  0.000000  0.000000  0.000000  0.000000
                       0.000000  0.000000  0.000000  0.000000  0.000000  0.000000
                       0.000000
                       1.000000  1.000000  1.000000  1.000000  1.000000  1.000000
                       1.000000  1.000000  0.000000  0.000000  0.000000  0.000000
                       0.000000  0.000000  0.000000  0.000000  0.000000  0.000000
                       0.000000
                       1.000000  1.000000  1.000000  1.000000  1.000000  1.000000
                       1.000000  1.000000  0.000000  0.000000  0.000000  0.000000
                       0.000000  0.000000  0.000000  0.000000  0.000000  0.000000
                       0.000000
                       1.000000  1.000000  1.000000  1.000000  1.000000  1.000000
                       1.000000  1.000000  0.000000  0.000000  0.000000  0.000000
                       0.000000  0.000000  0.000000  0.000000  0.000000  0.000000
                       0.000000
                       1.000000  1.000000  1.000000  1.000000  1.000000  1.000000
                       1.000000  1.000000  0.000000  0.000000  0.000000  0.000000
                       0.000000  0.000000  0.000000  0.000000  0.000000  0.000000
                       0.000000
                       1.000000  1.000000  1.000000  1.000000  1.000000  1.000000
                       1.000000  1.000000  0.000000  0.000000  0.000000  0.000000
                       0.000000  0.000000  0.000000  0.000000  0.000000  0.000000
                       0.000000
                       1.000000  1.000000  1.000000  1.000000  1.000000  1.000000
                       1.000000  1.000000  0.000000  0.000000  0.000000  0.000000
                       0.000000  0.000000  0.000000  0.000000  0.000000  0.000000
                       0.000000
                       1.000000  1.000000  1.000000  1.000000  1.000000  1.000000
                       1.000000  1.000000  0.000000  0.000000  0.000000  0.000000
                       0.000000  0.000000  0.000000  0.000000  0.000000  0.000000
                       0.000000
                       1.000000  1.000000  1.000000  1.000000  1.000000  1.000000
                       1.000000  1.000000  0.000000  0.000000  0.000000  0.000000
                       0.000000  0.000000  0.000000  0.000000  0.000000  0.000000
                       0.000000
                       1.000000  1.000000  1.000000  1.000000  1.000000  1.000000
                       1.000000  1.000000  0.000000  0.000000  0.000000  0.000000
                       0.000000  0.000000  0.000000  0.000000  0.000000  0.000000
                       0.000000
                       1.000000  1.000000  1.000000  1.000000  1.000000  1.000000
                       1.000000  1.000000  0.000000  0.000000  0.000000  0.000000
                       0.000000  0.000000  0.000000  0.000000  0.000000  0.000000
                       0.000000
                       1.000000  1.000000  1.000000  1.000000  1.000000  1.000000
                       1.000000  1.000000  0.000000  0.000000  0.000000  0.000000
                       0.000000  0.000000  0.000000  0.000000  0.000000  0.000000
                       0.000000
                       1.000000  1.000000  1.000000  1.000000  1.000000  1.000000
                       1.000000  1.000000  0.000000  0.000000  0.000000  0.000000
                       0.000000  0.000000  0.000000  0.000000  0.000000  0.000000
                       0.000000
                       1.000000  1.000000  1.000000  1.000000  1.000000  1.000000
                       1.000000  1.000000  0.000000  0.000000  0.000000  0.000000
                       0.000000  0.000000  0.000000  0.000000  0.000000  0.000000
                       0.000000
                       1.000000  1.000000  1.000000  1.000000  1.000000  1.000000
                       1.000000  1.000000  0.000000  0.000000  0.000000  0.000000
                       0.000000  0.000000  0.000000  0.000000  0.000000  0.000000
                       0.000000
                       1.000000  1.000000  1.000000  1.000000  1.000000  1.000000
                       1.000000  1.000000  0.000000  0.000000  0.000000  0.000000
                       0.000000  0.000000  0.000000  0.000000  0.000000  0.000000
                       0.000000
                       1.000000  1.000000  1.000000  1.000000  1.000000  1.000000
                       1.000000  1.000000  0.000000  0.000000  0.000000  0.000000
                       0.000000  0.000000  0.000000  0.000000  0.000000  0.000000
                       0.000000
                       1.000000  1.000000  1.000000  1.000000  1.000000  1.000000
                       1.000000  1.000000  0.000000  0.000000  0.000000  0.000000
                       0.000000  0.000000  0.000000  0.000000  0.000000  0.000000
                       0.000000
                       1.000000  1.000000  1.000000  1.000000  1.000000  1.000000
                       1.000000  1.000000  0.000000  0.000000  0.000000  0.000000
                       0.000000  0.000000  0.000000  0.000000  0.000000  0.000000
                       0.000000
                       1.000000  1.000000  1.000000  1.000000  1.000000  1.000000
                       1.000000  1.000000  0.000000  0.000000  0.000000  0.000000
                       0.000000  0.000000  0.000000  0.000000  0.000000  0.000000
                       0.000000
                       1.000000  1.000000  1.000000  1.000000  1.000000  1.000000
                       1.000000  1.000000  0.000000  0.000000  0.000000  0.000000
                       0.000000  0.000000  0.000000  0.000000  0.000000  0.000000
                       0.000000
                       1.000000  1.000000  1.000000  1.000000  1.000000  1.000000
                       1.000000  1.000000  0.000000  0.000000  0.000000  0.000000
                       0.000000  0.000000  0.000000  0.000000  0.000000  0.000000
                       0.000000
                       1.000000  1.000000  1.000000  1.000000  1.000000  1.000000
                       1.000000  1.000000  0.000000  0.000000  0.000000  0.000000
                       0.000000  0.000000  0.000000  0.000000  0.000000  0.000000
                       0.000000
                       1.000000  1.000000  1.000000  1.000000  1.000000  1.000000
                       1.000000  1.000000  0.000000  0.000000  0.000000  0.000000
                       0.000000  0.000000  0.000000  0.000000  0.000000  0.000000
                       0.000000
                       1.000000  1.000000  1.000000  1.000000  1.000000  1.000000
                       1.000000  1.000000  0.000000  0.000000  0.000000  0.000000
                       0.000000  0.000000  0.000000  0.000000  0.000000  0.000000
                       0.000000
                       1.000000  1.000000  1.000000  1.000000  1.000000  1.000000
                       1.000000  1.000000  0.000000  0.000000  0.000000  0.000000
                       0.000000  0.000000  0.000000  0.000000  0.000000  0.000000
                       0.000000
                       1.000000  1.000000  1.000000  1.000000  1.000000  1.000000
                       1.000000  1.000000  0.000000  0.000000  0.000000  0.000000
                       0.000000  0.000000  0.000000  0.000000  0.000000  0.000000
                       0.000000
                       1.000000  1.000000  1.000000  1.000000  1.000000  1.000000
                       1.000000  1.000000  0.000000  0.000000  0.000000  0.000000
                       0.000000  0.000000  0.000000  0.000000  0.000000  0.000000
                       0.000000
                       1.000000  1.000000  1.000000  1.000000  1.000000  1.000000
                       1.000000  1.000000  0.000000  0.000000  0.000000  0.000000
                       0.000000  0.000000  0.000000  0.000000  0.000000  0.000000
                       0.000000
                       1.000000  1.000000  1.000000  1.000000  1.000000  1.000000
                       1.000000  1.000000  0.000000  0.000000  0.000000  0.000000
                       0.000000  0.000000  0.000000  0.000000  0.000000  0.000000
                       0.000000
                       1.000000  1.000000  1.000000  1.000000  1.000000  1.000000
                       1.000000  1.000000  0.000000  0.000000  0.000000  0.000000
                       0.000000  0.000000  0.000000  0.000000  0.000000  0.000000
                       0.000000
                       1.000000  1.000000  1.000000  1.000000  1.000000  1.000000
                       1.000000  1.000000  0.000000  0.000000  0.000000  0.000000
                       0.000000  0.000000  0.000000  0.000000  0.000000  0.000000
                       0.000000
                       1.000000  1.000000  1.000000  1.000000  1.000000  1.000000
                       1.000000  1.000000  0.000000  0.000000  0.000000  0.000000
                       0.000000  0.000000  0.000000  0.000000  0.000000  0.000000
                       0.000000
           occopt           7
          prtkbff           1
            rprim     -5.0000000000E-01  5.0000000000E-01  5.0000000000E-01
                       5.0000000000E-01 -5.0000000000E-01  5.0000000000E-01
                       5.0000000000E-01  5.0000000000E-01 -5.0000000000E-01
           shiftk      5.00000000E-01  5.00000000E-01  5.00000000E-01
           so_psp           0
          spgroup         229
           spinat      0.0000000000E+00  0.0000000000E+00  5.0000000000E+00
        symmorphi1          1
        symmorphi2          0
        symmorphi3          1
        symmorphi4          1
        symmorphi5          1
        symmorphi6          1
           symrel      1  0  0   0  1  0   0  0  1      -1  0  0   0 -1  0   0  0 -1
                      -1 -1 -1   0  0  1   0  1  0       1  1  1   0  0 -1   0 -1  0
                       0  1  0   1  0  0  -1 -1 -1       0 -1  0  -1  0  0   1  1  1
                       0  0  1  -1 -1 -1   1  0  0       0  0 -1   1  1  1  -1  0  0
                       0  1  0   1  0  0   0  0  1       0 -1  0  -1  0  0   0  0 -1
                      -1 -1 -1   0  0  1   1  0  0       1  1  1   0  0 -1  -1  0  0
                       1  0  0   0  1  0  -1 -1 -1      -1  0  0   0 -1  0   1  1  1
                       0  0  1  -1 -1 -1   0  1  0       0  0 -1   1  1  1   0 -1  0
                      -1 -1 -1   1  0  0   0  0  1       1  1  1  -1  0  0   0  0 -1
                       0  1  0   0  0  1   1  0  0       0 -1  0   0  0 -1  -1  0  0
                       1  0  0  -1 -1 -1   0  1  0      -1  0  0   1  1  1   0 -1  0
                       0  0  1   0  1  0  -1 -1 -1       0  0 -1   0 -1  0   1  1  1
                       1  0  0  -1 -1 -1   0  0  1      -1  0  0   1  1  1   0  0 -1
                       0  1  0   0  0  1  -1 -1 -1       0 -1  0   0  0 -1   1  1  1
                      -1 -1 -1   1  0  0   0  1  0       1  1  1  -1  0  0   0 -1  0
                       0  0  1   0  1  0   1  0  0       0  0 -1   0 -1  0  -1  0  0
                       0  1  0  -1 -1 -1   0  0  1       0 -1  0   1  1  1   0  0 -1
                       1  0  0   0  0  1  -1 -1 -1      -1  0  0   0  0 -1   1  1  1
                      -1 -1 -1   0  1  0   1  0  0       1  1  1   0 -1  0  -1  0  0
                       0  0  1   1  0  0   0  1  0       0  0 -1  -1  0  0   0 -1  0
                      -1 -1 -1   0  1  0   0  0  1       1  1  1   0 -1  0   0  0 -1
                       1  0  0   0  0  1   0  1  0      -1  0  0   0  0 -1   0 -1  0
                       0  1  0  -1 -1 -1   1  0  0       0 -1  0   1  1  1  -1  0  0
                       0  0  1   1  0  0  -1 -1 -1       0  0 -1  -1  0  0   1  1  1
           toldfe1     1.00000000E-10 Hartree
           toldfe2     0.00000000E+00 Hartree
           toldfe3     0.00000000E+00 Hartree
           toldfe4     0.00000000E+00 Hartree
           toldfe5     0.00000000E+00 Hartree
           toldfe6     0.00000000E+00 Hartree
           tolwfr1     0.00000000E+00
           tolwfr2     1.00000000E-16
           tolwfr3     1.00000000E-16
           tolwfr4     1.00000000E-16
           tolwfr5     1.00000000E-16
           tolwfr6     1.00000000E-16
           tsmear      5.00000000E-03 Hartree
            typat      1
              wtk1       0.01563    0.04688    0.04688    0.02344    0.01172    0.04688
                         0.09375    0.04688    0.01563    0.04688    0.04688    0.04688
                         0.09375    0.04688    0.04688    0.01563    0.02344    0.01172
                         0.04688    0.04688    0.04688    0.04688    0.01172    0.04688
                         0.01563    0.01172
              wtk2       0.12500    0.18750    0.09375    0.37500    0.12500    0.09375
              wtk3       1.00000    1.00000    1.00000    1.00000    1.00000    1.00000
              wtk4       1.00000    1.00000    1.00000    1.00000    1.00000    1.00000
              wtk5       1.00000    1.00000    1.00000    1.00000    1.00000    1.00000
              wtk6       0.00195    0.00586    0.00586    0.00586    0.00586    0.00586
                         0.00586    0.00293    0.00146    0.00586    0.01172    0.01172
                         0.01172    0.01172    0.01172    0.00586    0.00586    0.01172
                         0.01172    0.01172    0.00586    0.00586    0.00586    0.00586
                         0.01172    0.01172    0.00586    0.01172    0.00586    0.00586
                         0.00586    0.01172    0.00586    0.00586    0.01172    0.01172
                         0.00586    0.01172    0.01172    0.00586    0.00586    0.01172
                         0.01172    0.01172    0.00586    0.01172    0.01172    0.00586
                         0.00586    0.01172
                       outvars : Printing only first  50 k-points.
            znucl       26.00000

================================================================================

 chkinp: Checking input parameters for consistency, jdtset=   1.

 chkinp: Checking input parameters for consistency, jdtset=   2.

 chkinp: Checking input parameters for consistency, jdtset=   3.

 chkinp: Checking input parameters for consistency, jdtset=   4.

 chkinp: Checking input parameters for consistency, jdtset=   5.

 chkinp: Checking input parameters for consistency, jdtset=   6.

================================================================================
== DATASET  1 ==================================================================
-   mpi_nproc: 1, omp_nthreads: 1 (-1 if OMP is not activated)


--- !DatasetInfo
iteration_state: {dtset: 1, }
dimensions: {natom: 1, nkpt: 26, mband: 19, nsppol: 2, nspinor: 1, nspden: 2, mpw: 1365, }
cutoff_energies: {ecut:  50.0, pawecutdg:  -1.0, }
electrons: {nelect:   1.60000000E+01, charge:   0.00000000E+00, occopt:   7.00000000E+00, tsmear:   5.00000000E-03, }
meta: {optdriver: 0, ionmov: 0, optcell: 0, iscf: 7, paral_kgb: 0, }
...

 Exchange-correlation functional for the present dataset will be:
  LDA: new Teter (4/93) with spin-polarized option - ixc=1
 Citation for XC functional:
  S. Goedecker, M. Teter, J. Huetter, PRB 54, 1703 (1996)

 Real(R)+Recip(G) space primitive vectors, cartesian coordinates (Bohr,Bohr^-1):
 R(1)= -2.7100000  2.7100000  2.7100000  G(1)=  0.0000000  0.1845018  0.1845018
 R(2)=  2.7100000 -2.7100000  2.7100000  G(2)=  0.1845018  0.0000000  0.1845018
 R(3)=  2.7100000  2.7100000 -2.7100000  G(3)=  0.1845018  0.1845018  0.0000000
 Unit cell volume ucvol=  7.9610044E+01 bohr^3
 Angles (23,13,12)=  1.09471221E+02  1.09471221E+02  1.09471221E+02 degrees

 getcut: wavevector=  0.0000  0.0000  0.0000  ngfft=  30  30  30
         ecut(hartree)=     50.000   => boxcut(ratio)=   2.00790

--- Pseudopotential description ------------------------------------------------
- pspini: atom type   1  psp file is 26fe.16.hgh
- pspatm: opening atomic psp file    26fe.16.hgh
- Hartwigsen-Goedecker-Hutter psp for Fe,  from PRB58, 3641 (1998)
- 26.00000  16.00000     10605                znucl, zion, pspdat
    3    1    2    0      2001   0.00000      pspcod,pspxc,lmax,lloc,mmax,r2well
 rloc=   0.3600000
 cc1 =   5.3925070; cc2 =  -0.0300660; cc3 =   0.0000000; cc4 =   0.0000000
 rrs =   0.2692680; h11s=  10.1937230; h22s=  -6.8349820; h33s=   0.0000000
 rrp =   0.2476860; h11p=   0.1456130; h22p=  -5.2349540; h33p=   0.0000000
                    k11p=   0.2014500; k22p=  -0.0758290; k33p=   0.0000000
 rrd =   0.2230210; h11d= -12.0269410; h22d=   0.0000000; h33d=   0.0000000
                    k11d=   0.0103220; k22d=   0.0000000; k33d=   0.0000000
-  Local part computed in reciprocal space.

 pspatm : COMMENT -
  the projectors are not normalized,
  so that the KB energies are not consistent with 
  definition in PRB44, 8503 (1991). 
  However, this does not influence the results obtained hereafter.
  pspatm : epsatm=   16.92502289
         --- l  ekb(1:nproj) -->
             0   -0.500862    0.733315
             1   -0.039838    0.006202
             2   -0.004680
 pspatm: atomic psp has been read  and splines computed

   2.70800366E+02                                ecore*ucvol(ha*bohr**3)
--------------------------------------------------------------------------------

_setup2: Arith. and geom. avg. npw (full set) are    1343.973    1343.953

================================================================================

--- !BeginCycle
iteration_state: {dtset: 1, }
solver: {iscf: 7, nstep: 100, nline: 4, wfoptalg: 0, }
tolerances: {toldfe: 1.00E-10, }
...

     iter   Etot(hartree)     deltaE(h) residm    vres2    magn
 ETOT  1  -111.27365414098    -1.11E+02 2.62E-01 8.54E+04 2.000
 ETOT  2  -112.41120208484    -1.14E+00 3.90E-01 7.66E+04 0.136
 ETOT  3  -122.33930927584    -9.93E+00 6.58E-01 1.56E+03 1.934
 ETOT  4  -122.65896491659    -3.20E-01 6.52E-02 2.78E+02 1.822
 ETOT  5  -122.29905504256     3.60E-01 2.18E-02 2.27E+03 2.179
 ETOT  6  -122.67613300958    -3.77E-01 1.26E-02 5.06E+01 1.938
 ETOT  7  -122.67692838276    -7.95E-04 3.30E-03 4.65E+01 1.937
 ETOT  8  -122.68590836630    -8.98E-03 6.48E-04 8.40E-01 1.978
 ETOT  9  -122.68588402837     2.43E-05 5.57E-04 1.04E+00 1.985
 ETOT 10  -122.68598829194    -1.04E-04 1.04E-04 8.01E-01 2.091
 ETOT 11  -122.68608745482    -9.92E-05 1.70E-04 8.37E-02 2.079
 ETOT 12  -122.68610160373    -1.41E-05 5.72E-05 1.22E-03 2.083
 ETOT 13  -122.68610203911    -4.35E-07 6.57E-05 2.46E-04 2.078
 ETOT 14  -122.68610208112    -4.20E-08 2.56E-05 8.21E-07 2.077
 ETOT 15  -122.68610208151    -3.84E-10 2.59E-05 8.13E-08 2.077
 ETOT 16  -122.68610208155    -4.67E-11 2.20E-05 1.84E-11 2.077
 ETOT 17  -122.68610208155    -7.11E-14 1.15E-05 1.58E-13 2.077

 At SCF step   17, etot is converged : 
  for the second time, diff in etot=  7.105E-14 < toldfe=  1.000E-10

 Cartesian components of stress tensor (hartree/bohr^3)
  sigma(1 1)=  2.67061483E-02  sigma(3 2)=  0.00000000E+00
  sigma(2 2)=  2.67061483E-02  sigma(3 1)=  0.00000000E+00
  sigma(3 3)=  2.67061483E-02  sigma(2 1)=  0.00000000E+00


--- !ResultsGS
iteration_state: {dtset: 1, }
comment   : Summary of ground state results
lattice_vectors:
- [ -2.7100000,   2.7100000,   2.7100000, ]
- [  2.7100000,  -2.7100000,   2.7100000, ]
- [  2.7100000,   2.7100000,  -2.7100000, ]
lattice_lengths: [   4.69386,    4.69386,    4.69386, ]
lattice_angles: [109.471, 109.471, 109.471, ] # degrees, (23, 13, 12)
lattice_volume:   7.9610044E+01
convergence: {deltae: -7.105E-14, res2:  1.575E-13, residm:  1.146E-05, diffor: null, }
etotal    :  -1.22686102E+02
entropy   :   0.00000000E+00
fermie    :   4.49862843E-01
cartesian_stress_tensor: # hartree/bohr^3
- [  2.67061483E-02,   0.00000000E+00,   0.00000000E+00, ]
- [  0.00000000E+00,   2.67061483E-02,   0.00000000E+00, ]
- [  0.00000000E+00,   0.00000000E+00,   2.67061483E-02, ]
pressure_GPa:  -7.8572E+02
xred      :
- [  0.0000E+00,   0.0000E+00,   0.0000E+00, Fe]
cartesian_forces: # hartree/bohr
- [ -0.00000000E+00,  -0.00000000E+00,  -0.00000000E+00, ]
force_length_stats: {min:   0.00000000E+00, max:   0.00000000E+00, mean:   0.00000000E+00, }
...

 Integrated electronic and magnetization densities in atomic spheres:
 ---------------------------------------------------------------------
 Radius=ratsph(iatom), smearing ratsm=  0.0000. Diff(up-dn)=approximate z local magnetic moment.
 Atom    Radius    up_density   dn_density  Total(up+dn)  Diff(up-dn)
    1   2.00000     7.984740     5.922111     13.906851     2.062629
 ---------------------------------------------------------------------
  Sum:              7.984740     5.922111     13.906851     2.062629
 Total magnetization (from the atomic spheres):             2.062629
 Total magnetization (exact up - dn):                       2.077324
================================================================================

 ----iterations are completed or convergence reached----

 Mean square residual over all n,k,spin=   22.351E-09; max=  11.459E-06
 reduced coordinates (array xred) for    1 atoms
       0.000000000000      0.000000000000      0.000000000000
 rms dE/dt=  0.0000E+00; max dE/dt=  0.0000E+00; dE/dt below (all hartree)
    1       0.000000000000      0.000000000000      0.000000000000

 cartesian coordinates (angstrom) at end:
    1      0.00000000000000     0.00000000000000     0.00000000000000

 cartesian forces (hartree/bohr) at end:
    1     -0.00000000000000    -0.00000000000000    -0.00000000000000
 frms,max,avg= 0.0000000E+00 0.0000000E+00   0.000E+00  0.000E+00  0.000E+00 h/b

 cartesian forces (eV/Angstrom) at end:
    1     -0.00000000000000    -0.00000000000000    -0.00000000000000
 frms,max,avg= 0.0000000E+00 0.0000000E+00   0.000E+00  0.000E+00  0.000E+00 e/A
 length scales=  5.420000000000  5.420000000000  5.420000000000 bohr
              =  2.868140470558  2.868140470558  2.868140470558 angstroms
 prteigrs : about to open file Fe_e50_k4_noSO.o_DS1_EIG
 Fermi (or HOMO) energy (eV) =  12.24139   Average Vxc (eV)= -14.01188
 Eigenvalues (   eV  ) for nkpt=  26  k points, SPIN UP:
 kpt#   1, nband= 19, wtk=  0.01563, kpt=  0.0625  0.0625  0.0625 (reduced coord)
 -79.67341  -45.46545  -45.40437  -45.40437    3.71999    9.47232    9.47232   10.31936
  11.03318   11.03318   32.44509   32.44509   35.45926   36.39759   40.89783   40.89783
  43.14040   43.14040   47.81530
 prteigrs : prtvol=0 or 1, do not print more k-points.

 Eigenvalues (   eV  ) for nkpt=  26  k points, SPIN DOWN:
 kpt#   1, nband= 19, wtk=  0.01563, kpt=  0.0625  0.0625  0.0625 (reduced coord)
 -76.95045  -42.83545  -42.76715  -42.76715    4.17010   11.29476   11.29476   12.23169
  13.53636   13.53636   33.03280   33.03280   36.41585   36.57989   41.51873   41.51873
  43.94632   43.94632   48.66030
 prteigrs : prtvol=0 or 1, do not print more k-points.


--- !EnergyTerms
iteration_state     : {dtset: 1, }
comment             : Components of total free energy in Hartree
kinetic             :  6.31959542439809E+01
hartree             :  3.15136265685558E+01
xc                  : -1.28000808192873E+01
Ewald energy        : -8.59449965935601E+01
psp_core            :  3.40158543545826E+00
local_psp           : -1.03952265737405E+02
non_local_psp       : -1.80995445545019E+01
internal            : -1.22685721456759E+02
'-kT*entropy'       : -3.80624793572126E-04
total_energy        : -1.22686102081553E+02
total_energy_eV     : -3.33845861802828E+03
band_energy         : -1.26661215788399E+01
...


 Cartesian components of stress tensor (hartree/bohr^3)
  sigma(1 1)=  2.67061483E-02  sigma(3 2)=  0.00000000E+00
  sigma(2 2)=  2.67061483E-02  sigma(3 1)=  0.00000000E+00
  sigma(3 3)=  2.67061483E-02  sigma(2 1)=  0.00000000E+00

-Cartesian components of stress tensor (GPa)         [Pressure= -7.8572E+02 GPa]
- sigma(1 1)=  7.85721877E+02  sigma(3 2)=  0.00000000E+00
- sigma(2 2)=  7.85721877E+02  sigma(3 1)=  0.00000000E+00
- sigma(3 3)=  7.85721877E+02  sigma(2 1)=  0.00000000E+00

================================================================================
== DATASET  2 ==================================================================
-   mpi_nproc: 1, omp_nthreads: 1 (-1 if OMP is not activated)


--- !DatasetInfo
iteration_state: {dtset: 2, }
dimensions: {natom: 1, nkpt: 6, mband: 15, nsppol: 2, nspinor: 1, nspden: 2, mpw: 1358, }
cutoff_energies: {ecut:  50.0, pawecutdg:  -1.0, }
electrons: {nelect:   1.60000000E+01, charge:   0.00000000E+00, occopt:   7.00000000E+00, tsmear:   5.00000000E-03, }
meta: {optdriver: 0, ionmov: 0, optcell: 0, iscf: -2, paral_kgb: 0, }
...

 mkfilename : getden/=0, take file _DEN from output of DATASET   1.

 Exchange-correlation functional for the present dataset will be:
  LDA: new Teter (4/93) with spin-polarized option - ixc=1
 Citation for XC functional:
  S. Goedecker, M. Teter, J. Huetter, PRB 54, 1703 (1996)

 Real(R)+Recip(G) space primitive vectors, cartesian coordinates (Bohr,Bohr^-1):
 R(1)= -2.7100000  2.7100000  2.7100000  G(1)=  0.0000000  0.1845018  0.1845018
 R(2)=  2.7100000 -2.7100000  2.7100000  G(2)=  0.1845018  0.0000000  0.1845018
 R(3)=  2.7100000  2.7100000 -2.7100000  G(3)=  0.1845018  0.1845018  0.0000000
 Unit cell volume ucvol=  7.9610044E+01 bohr^3
 Angles (23,13,12)=  1.09471221E+02  1.09471221E+02  1.09471221E+02 degrees

 getcut: wavevector=  0.0000  0.0000  0.0000  ngfft=  30  30  30
         ecut(hartree)=     50.000   => boxcut(ratio)=   2.00790
--------------------------------------------------------------------------------


================================================================================
 prteigrs : about to open file Fe_e50_k4_noSO.o_DS2_EIG

 SPIN UP channel
 Non-SCF case, kpt    1 (  0.12500  0.12500  0.12500), residuals and eigenvalues=
  1.81E-17  2.40E-17  9.13E-17  9.65E-18  1.80E-17  3.21E-17  1.45E-17  2.06E-15
  2.85E-15  1.47E-15  3.31E-17  3.87E-17  4.92E-17  8.08E-13  3.74E-04
 -2.9272E+00 -1.6756E+00 -1.6697E+00 -1.6697E+00  2.2232E-01  3.2245E-01
  3.2245E-01  4.0847E-01  4.0847E-01  4.4723E-01  1.0034E+00  1.0034E+00
  1.0437E+00  1.4312E+00  1.6190E+00
 prteigrs : prtvol=0 or 1, do not print more k-points.


 SPIN DOWN channel
 Non-SCF case, kpt    1 (  0.12500  0.12500  0.12500), residuals and eigenvalues=
  1.48E-17  3.05E-17  9.44E-17  1.15E-17  2.29E-17  4.82E-17  1.10E-17  4.94E-15
  1.96E-15  1.22E-15  2.13E-16  2.12E-16  4.33E-17  6.68E-13  2.68E-04
 -2.8271E+00 -1.5795E+00 -1.5729E+00 -1.5729E+00  2.4177E-01  3.8527E-01
  3.8527E-01  5.0022E-01  5.0022E-01  5.1959E-01  1.0345E+00  1.0345E+00
  1.0755E+00  1.4380E+00  1.6426E+00
 prteigrs : prtvol=0 or 1, do not print more k-points.



--- !ResultsGS
iteration_state: {dtset: 2, }
comment   : Summary of ground state results
lattice_vectors:
- [ -2.7100000,   2.7100000,   2.7100000, ]
- [  2.7100000,  -2.7100000,   2.7100000, ]
- [  2.7100000,   2.7100000,  -2.7100000, ]
lattice_lengths: [   4.69386,    4.69386,    4.69386, ]
lattice_angles: [109.471, 109.471, 109.471, ] # degrees, (23, 13, 12)
lattice_volume:   7.9610044E+01
convergence: {deltae:  0.000E+00, res2:  0.000E+00, residm:  9.678E-17, diffor:  0.000E+00, }
etotal    :  -1.22686102E+02
entropy   :   0.00000000E+00
fermie    :   4.49862843E-01
cartesian_stress_tensor: null
pressure_GPa: null
xred      :
- [  0.0000E+00,   0.0000E+00,   0.0000E+00, Fe]
cartesian_forces: null
force_length_stats: {min: null, max: null, mean: null, }
...

 Integrated electronic and magnetization densities in atomic spheres:
 ---------------------------------------------------------------------
 Radius=ratsph(iatom), smearing ratsm=  0.0000. Diff(up-dn)=approximate z local magnetic moment.
 Atom    Radius    up_density   dn_density  Total(up+dn)  Diff(up-dn)
    1   2.00000     7.984740     5.922111     13.906851     2.062629
 ---------------------------------------------------------------------
  Sum:              7.984740     5.922111     13.906851     2.062629
 Total magnetization (from the atomic spheres):             2.062629
 Total magnetization (exact up - dn):                       2.077324

======================================================================
 Calculating and writing out Kohn-Sham electronic Structure file
 Using conjugate gradient wavefunctions and energies (kssform=3)

 outkss : COMMENT - 
 At least one NC pseudopotential has more that one projector per angular channel
 Note that inclvkb==0 should be used in screening, since the evaluation of the commutator
 for this particular case is not implemented yet
 outkss: Not allowed options found !
 Program does not stop but _KSS file will not be created...
 outkss: see the log file for more information.
================================================================================

 ----iterations are completed or convergence reached----

 Mean square residual over all n,k,spin=   36.940E-18; max=  96.775E-18
 reduced coordinates (array xred) for    1 atoms
       0.000000000000      0.000000000000      0.000000000000

 cartesian coordinates (angstrom) at end:
    1      0.00000000000000     0.00000000000000     0.00000000000000
 length scales=  5.420000000000  5.420000000000  5.420000000000 bohr
              =  2.868140470558  2.868140470558  2.868140470558 angstroms
 prteigrs : about to open file Fe_e50_k4_noSO.o_DS2_EIG
 Eigenvalues (   eV  ) for nkpt=   6  k points, SPIN UP:
 kpt#   1, nband= 15, wtk=  0.12500, kpt=  0.1250  0.1250  0.1250 (reduced coord)
 -79.65449  -45.59577  -45.43398  -45.43398    6.04951    8.77435    8.77435   11.11498
  11.11498   12.16963   27.30523   27.30523   28.40046   38.94362   44.05406
 prteigrs : prtvol=0 or 1, do not print more k-points.

 Eigenvalues (   eV  ) for nkpt=   6  k points, SPIN DOWN:
 kpt#   1, nband= 15, wtk=  0.12500, kpt=  0.1250  0.1250  0.1250 (reduced coord)
 -76.92878  -42.98022  -42.79988  -42.79988    6.57902   10.48375   10.48375   13.61173
  13.61173   14.13885   28.14888   28.14888   29.26571   39.12935   44.69748
 prteigrs : prtvol=0 or 1, do not print more k-points.


================================================================================
== DATASET  3 ==================================================================
-   mpi_nproc: 1, omp_nthreads: 1 (-1 if OMP is not activated)


--- !DatasetInfo
iteration_state: {dtset: 3, }
dimensions: {natom: 1, nkpt: 6, mband: 15, nsppol: 2, nspinor: 1, nspden: 2, mpw: 1358, }
cutoff_energies: {ecut:  50.0, pawecutdg:  -1.0, }
electrons: {nelect:   1.60000000E+01, charge:   0.00000000E+00, occopt:   7.00000000E+00, tsmear:   5.00000000E-03, }
meta: {optdriver: 0, ionmov: 0, optcell: 0, iscf: -2, paral_kgb: 0, }
...

 mkfilename : getden/=0, take file _DEN from output of DATASET   1.

 Exchange-correlation functional for the present dataset will be:
  LDA: new Teter (4/93) with spin-polarized option - ixc=1
 Citation for XC functional:
  S. Goedecker, M. Teter, J. Huetter, PRB 54, 1703 (1996)

 Real(R)+Recip(G) space primitive vectors, cartesian coordinates (Bohr,Bohr^-1):
 R(1)= -2.7100000  2.7100000  2.7100000  G(1)=  0.0000000  0.1845018  0.1845018
 R(2)=  2.7100000 -2.7100000  2.7100000  G(2)=  0.1845018  0.0000000  0.1845018
 R(3)=  2.7100000  2.7100000 -2.7100000  G(3)=  0.1845018  0.1845018  0.0000000
 Unit cell volume ucvol=  7.9610044E+01 bohr^3
 Angles (23,13,12)=  1.09471221E+02  1.09471221E+02  1.09471221E+02 degrees

 getcut: wavevector=  0.0000  0.0000  0.0000  ngfft=  30  30  30
         ecut(hartree)=     50.000   => boxcut(ratio)=   2.00790
--------------------------------------------------------------------------------


================================================================================
 prteigrs : about to open file Fe_e50_k4_noSO.o_DS3_EIG

 SPIN UP channel
 Non-SCF case, kpt    1 (  0.12498  0.12502  0.12502), residuals and eigenvalues=
  1.81E-17  2.40E-17  9.82E-17  8.91E-18  1.79E-17  1.45E-17  2.95E-17  1.16E-15
  4.06E-15  1.47E-15  3.77E-17  3.34E-17  4.93E-17  8.12E-13  3.74E-04
 -2.9272E+00 -1.6756E+00 -1.6697E+00 -1.6697E+00  2.2233E-01  3.2245E-01
  3.2245E-01  4.0847E-01  4.0847E-01  4.4724E-01  1.0034E+00  1.0034E+00
  1.0437E+00  1.4312E+00  1.6190E+00
 Non-SCF case, kpt    2 (  0.37498  0.12502  0.12502), residuals and eigenvalues=
  1.70E-17  6.49E-17  3.87E-17  1.08E-17  8.26E-18  3.17E-17  8.70E-17  6.42E-17
  5.69E-17  6.61E-17  2.53E-17  5.29E-17  2.20E-17  2.04E-11  5.13E-05
 -2.9250E+00 -1.6777E+00 -1.6728E+00 -1.6697E+00  2.8101E-01  3.1180E-01
  3.5881E-01  4.2009E-01  4.2440E-01  5.7910E-01  6.9376E-01  9.2592E-01
  9.2886E-01  1.4770E+00  1.6272E+00
 Non-SCF case, kpt    3 ( -0.12502  0.12502  0.12502), residuals and eigenvalues=
  6.99E-17  4.58E-17  1.15E-17  1.10E-17  2.35E-17  1.71E-16  2.86E-16  1.44E-15
  1.43E-15  3.75E-15  4.43E-13  1.08E-11  2.34E-10  3.31E-11  5.42E-11
 -2.9277E+00 -1.6702E+00 -1.6694E+00 -1.6694E+00  1.4743E-01  3.5813E-01
  3.5813E-01  3.6803E-01  3.8493E-01  4.1849E-01  1.1800E+00  1.2392E+00
  1.2392E+00  1.2809E+00  1.4575E+00
 Non-SCF case, kpt    4 ( -0.37502  0.37502  0.12502), residuals and eigenvalues=
  7.91E-17  6.81E-17  9.68E-17  5.94E-17  5.65E-18  1.55E-16  2.46E-17  5.87E-15
  7.09E-15  2.81E-16  4.50E-16  8.31E-15  1.09E-16  1.21E-09  3.76E-08
 -2.9261E+00 -1.6774E+00 -1.6722E+00 -1.6695E+00  2.5666E-01  3.3248E-01
  3.3976E-01  3.9569E-01  4.4694E-01  4.5247E-01  8.0297E-01  1.0561E+00
  1.0805E+00  1.3650E+00  1.4066E+00
 Non-SCF case, kpt    5 ( -0.37502 -0.37498  0.12502), residuals and eigenvalues=
  1.52E-17  4.10E-17  1.74E-17  1.63E-17  3.88E-17  6.63E-17  3.22E-17  4.21E-16
  1.90E-15  1.32E-16  1.61E-16  2.61E-17  2.81E-13  3.41E-12  3.06E-14
 -2.9248E+00 -1.6764E+00 -1.6764E+00 -1.6705E+00  3.0902E-01  3.0902E-01
  3.2698E-01  4.2767E-01  4.2768E-01  6.7903E-01  6.7908E-01  7.4487E-01
  1.2689E+00  1.2814E+00  1.2814E+00
 Non-SCF case, kpt    6 ( -0.37502  0.37502  0.37502), residuals and eigenvalues=
  4.66E-17  4.22E-17  1.10E-17  5.30E-18  4.84E-17  1.92E-17  1.59E-17  2.45E-17
  9.41E-17  1.84E-17  6.39E-17  2.33E-17  2.32E-15  5.61E-17  9.51E-15
 -2.9240E+00 -1.6761E+00 -1.6750E+00 -1.6750E+00  2.7524E-01  2.8422E-01
  4.2165E-01  4.2165E-01  4.4961E-01  5.8478E-01  8.3806E-01  8.3806E-01
  1.0326E+00  1.0624E+00  1.3111E+00

 SPIN DOWN channel
 Non-SCF case, kpt    1 (  0.12498  0.12502  0.12502), residuals and eigenvalues=
  1.48E-17  3.05E-17  9.01E-18  9.84E-18  2.28E-17  1.13E-17  7.33E-17  4.71E-16
  6.42E-15  1.22E-15  2.70E-16  2.13E-16  4.35E-17  6.68E-13  2.68E-04
 -2.8271E+00 -1.5795E+00 -1.5729E+00 -1.5729E+00  2.4179E-01  3.8527E-01
  3.8527E-01  5.0022E-01  5.0023E-01  5.1960E-01  1.0344E+00  1.0344E+00
  1.0755E+00  1.4380E+00  1.6426E+00
 Non-SCF case, kpt    2 (  0.37498  0.12502  0.12502), residuals and eigenvalues=
  1.47E-17  6.55E-17  4.42E-17  1.12E-17  2.40E-17  1.54E-17  8.31E-17  6.75E-17
  5.21E-17  8.77E-17  1.06E-17  4.54E-17  1.35E-17  3.33E-12  1.23E-06
 -2.8248E+00 -1.5818E+00 -1.5763E+00 -1.5729E+00  3.2944E-01  3.7012E-01
  3.9866E-01  5.1051E-01  5.1975E-01  6.3443E-01  7.4414E-01  9.5655E-01
  9.5793E-01  1.4934E+00  1.6551E+00
 Non-SCF case, kpt    3 ( -0.12502  0.12502  0.12502), residuals and eigenvalues=
  4.88E-17  4.03E-17  4.02E-17  1.10E-17  1.38E-17  1.12E-16  4.04E-16  8.23E-16
  2.06E-15  6.65E-15  3.60E-13  7.42E-12  1.18E-10  5.47E-11  8.49E-11
 -2.8276E+00 -1.5735E+00 -1.5726E+00 -1.5726E+00  1.6415E-01  4.2536E-01
  4.2536E-01  4.3800E-01  4.7237E-01  5.1291E-01  1.2009E+00  1.2651E+00
  1.2651E+00  1.3042E+00  1.4794E+00
 Non-SCF case, kpt    4 ( -0.37502  0.37502  0.12502), residuals and eigenvalues=
  7.49E-17  8.69E-17  9.19E-17  7.79E-17  2.33E-17  6.80E-17  2.33E-17  5.08E-15
  1.28E-14  4.36E-15  3.55E-15  6.14E-14  1.27E-15  1.67E-08  1.38E-07
 -2.8259E+00 -1.5815E+00 -1.5756E+00 -1.5727E+00  2.9122E-01  3.9632E-01
  3.9696E-01  4.7488E-01  5.2408E-01  5.3270E-01  8.4628E-01  1.0869E+00
  1.1032E+00  1.3896E+00  1.4343E+00
 Non-SCF case, kpt    5 ( -0.37502 -0.37498  0.12502), residuals and eigenvalues=
  7.35E-17  2.77E-17  1.47E-17  1.33E-17  1.27E-17  6.06E-17  9.85E-18  2.91E-16
  2.18E-15  5.85E-16  5.50E-16  3.92E-17  2.21E-13  4.01E-13  1.90E-12
 -2.8246E+00 -1.5804E+00 -1.5804E+00 -1.5738E+00  3.6699E-01  3.6700E-01
  3.8478E-01  5.0575E-01  5.0576E-01  7.2767E-01  7.2771E-01  7.8303E-01
  1.2953E+00  1.3062E+00  1.3062E+00
 Non-SCF case, kpt    6 ( -0.37502  0.37502  0.37502), residuals and eigenvalues=
  3.73E-17  5.38E-17  1.57E-17  1.45E-17  6.32E-17  3.80E-17  1.67E-17  7.12E-17
  1.42E-16  6.82E-18  6.67E-18  6.94E-17  2.65E-14  1.08E-17  3.88E-14
 -2.8237E+00 -1.5800E+00 -1.5788E+00 -1.5788E+00  3.3185E-01  3.5046E-01
  4.9185E-01  4.9185E-01  5.2652E-01  6.2717E-01  8.6675E-01  8.6675E-01
  1.0803E+00  1.0981E+00  1.3453E+00


--- !ResultsGS
iteration_state: {dtset: 3, }
comment   : Summary of ground state results
lattice_vectors:
- [ -2.7100000,   2.7100000,   2.7100000, ]
- [  2.7100000,  -2.7100000,   2.7100000, ]
- [  2.7100000,   2.7100000,  -2.7100000, ]
lattice_lengths: [   4.69386,    4.69386,    4.69386, ]
lattice_angles: [109.471, 109.471, 109.471, ] # degrees, (23, 13, 12)
lattice_volume:   7.9610044E+01
convergence: {deltae:  0.000E+00, res2:  0.000E+00, residm:  9.819E-17, diffor:  0.000E+00, }
etotal    :  -1.22686102E+02
entropy   :   0.00000000E+00
fermie    :   4.49862843E-01
cartesian_stress_tensor: null
pressure_GPa: null
xred      :
- [  0.0000E+00,   0.0000E+00,   0.0000E+00, Fe]
cartesian_forces: null
force_length_stats: {min: null, max: null, mean: null, }
...

 Integrated electronic and magnetization densities in atomic spheres:
 ---------------------------------------------------------------------
 Radius=ratsph(iatom), smearing ratsm=  0.0000. Diff(up-dn)=approximate z local magnetic moment.
 Atom    Radius    up_density   dn_density  Total(up+dn)  Diff(up-dn)
    1   2.00000     7.984740     5.922111     13.906851     2.062629
 ---------------------------------------------------------------------
  Sum:              7.984740     5.922111     13.906851     2.062629
 Total magnetization (from the atomic spheres):             2.062629
 Total magnetization (exact up - dn):                       2.077324

======================================================================
 Calculating and writing out Kohn-Sham electronic Structure file
 Using conjugate gradient wavefunctions and energies (kssform=3)

 outkss : COMMENT - 
 At least one NC pseudopotential has more that one projector per angular channel
 Note that inclvkb==0 should be used in screening, since the evaluation of the commutator
 for this particular case is not implemented yet
 outkss: Not allowed options found !
 Program does not stop but _KSS file will not be created...
 outkss: see the log file for more information.
================================================================================

 ----iterations are completed or convergence reached----

 Mean square residual over all n,k,spin=   35.697E-18; max=  98.194E-18
 reduced coordinates (array xred) for    1 atoms
       0.000000000000      0.000000000000      0.000000000000

 cartesian coordinates (angstrom) at end:
    1      0.00000000000000     0.00000000000000     0.00000000000000
 length scales=  5.420000000000  5.420000000000  5.420000000000 bohr
              =  2.868140470558  2.868140470558  2.868140470558 angstroms
 prteigrs : about to open file Fe_e50_k4_noSO.o_DS3_EIG
 Eigenvalues (   eV  ) for nkpt=   6  k points, SPIN UP:
 kpt#   1, nband= 15, wtk=  1.00000, kpt=  0.1250  0.1250  0.1250 (reduced coord)
 -79.65449  -45.59579  -45.43400  -45.43398    6.04982    8.77427    8.77429   11.11495
  11.11504   12.16990   27.30429   27.30507   28.39973   38.94401   44.05423
 kpt#   2, nband= 15, wtk=  1.00000, kpt=  0.3750  0.1250  0.1250 (reduced coord)
 -79.59418  -45.65211  -45.51818  -45.43378    7.64676    8.48452    9.76379   11.43118
  11.54842   15.75809   18.87804   25.19565   25.27566   40.19212   44.27858
 kpt#   3, nband= 15, wtk=  1.00000, kpt= -0.1250  0.1250  0.1250 (reduced coord)
 -79.66640  -45.44825  -45.42742  -45.42742    4.01187    9.74529    9.74529   10.01460
  10.47461   11.38766   32.10882   33.71902   33.71902   34.85383   39.66025
 kpt#   4, nband= 15, wtk=  1.00000, kpt= -0.3750  0.3750  0.1250 (reduced coord)
 -79.62359  -45.64563  -45.50267  -45.43005    6.98396    9.04718    9.24534   10.76724
  12.16189   12.31231   21.85006   28.73924   29.40150   37.14384   38.27535
 kpt#   5, nband= 15, wtk=  1.00000, kpt= -0.3750 -0.3750  0.1250 (reduced coord)
 -79.58917  -45.61747  -45.61745  -45.45645    8.40874    8.40884    8.89762   11.63756
  11.63782   18.47739   18.47875   20.26902   34.52769   34.86819   34.86898
 kpt#   6, nband= 15, wtk=  1.00000, kpt= -0.3750  0.3750  0.3750 (reduced coord)
 -79.56580  -45.60892  -45.57998  -45.57998    7.48960    7.73408   11.47380   11.47380
  12.23451   15.91274   22.80490   22.80490   28.09964   28.90964   35.67811
 Eigenvalues (   eV  ) for nkpt=   6  k points, SPIN DOWN:
 kpt#   1, nband= 15, wtk=  1.00000, kpt=  0.1250  0.1250  0.1250 (reduced coord)
 -76.92877  -42.98024  -42.79989  -42.79988    6.57935   10.48366   10.48367   13.61168
  13.61182   14.13911   28.14800   28.14870   29.26497   39.12974   44.69773
 kpt#   2, nband= 15, wtk=  1.00000, kpt=  0.3750  0.1250  0.1250 (reduced coord)
 -76.86684  -43.04349  -42.89409  -42.80084    8.96457   10.07145   10.84799   13.89175
  14.14298   17.26371   20.24895   26.02896   26.06671   40.63880   45.03641
 kpt#   3, nband= 15, wtk=  1.00000, kpt= -0.1250  0.1250  0.1250 (reduced coord)
 -76.94312  -42.81708  -42.79248  -42.79248    4.46682   11.57474   11.57474   11.91867
  12.85397   13.95691   32.67950   34.42609   34.42609   35.48903   40.25573
 kpt#   4, nband= 15, wtk=  1.00000, kpt= -0.3750  0.3750  0.1250 (reduced coord)
 -76.89654  -43.03607  -42.87553  -42.79575    7.92461   10.78445   10.80175   12.92207
  14.26098   14.49558   23.02832   29.57633   30.01873   37.81365   39.02894
 kpt#   5, nband= 15, wtk=  1.00000, kpt= -0.3750 -0.3750  0.1250 (reduced coord)
 -76.86077  -43.00418  -43.00416  -42.82477    9.98639    9.98645   10.47053   13.76223
  13.76251   19.80081   19.80211   21.30726   35.24699   35.54232   35.54307
 kpt#   6, nband= 15, wtk=  1.00000, kpt= -0.3750  0.3750  0.3750 (reduced coord)
 -76.83664  -42.99418  -42.96211  -42.96211    9.03017    9.53642   13.38387   13.38387
  14.32738   17.06621   23.58549   23.58549   29.39581   29.88061   36.60678

================================================================================
== DATASET  4 ==================================================================
-   mpi_nproc: 1, omp_nthreads: 1 (-1 if OMP is not activated)


--- !DatasetInfo
iteration_state: {dtset: 4, }
dimensions: {natom: 1, nkpt: 6, mband: 15, nsppol: 2, nspinor: 1, nspden: 2, mpw: 1358, }
cutoff_energies: {ecut:  50.0, pawecutdg:  -1.0, }
electrons: {nelect:   1.60000000E+01, charge:   0.00000000E+00, occopt:   7.00000000E+00, tsmear:   5.00000000E-03, }
meta: {optdriver: 0, ionmov: 0, optcell: 0, iscf: -2, paral_kgb: 0, }
...

 mkfilename : getden/=0, take file _DEN from output of DATASET   1.

 Exchange-correlation functional for the present dataset will be:
  LDA: new Teter (4/93) with spin-polarized option - ixc=1
 Citation for XC functional:
  S. Goedecker, M. Teter, J. Huetter, PRB 54, 1703 (1996)

 Real(R)+Recip(G) space primitive vectors, cartesian coordinates (Bohr,Bohr^-1):
 R(1)= -2.7100000  2.7100000  2.7100000  G(1)=  0.0000000  0.1845018  0.1845018
 R(2)=  2.7100000 -2.7100000  2.7100000  G(2)=  0.1845018  0.0000000  0.1845018
 R(3)=  2.7100000  2.7100000 -2.7100000  G(3)=  0.1845018  0.1845018  0.0000000
 Unit cell volume ucvol=  7.9610044E+01 bohr^3
 Angles (23,13,12)=  1.09471221E+02  1.09471221E+02  1.09471221E+02 degrees

 getcut: wavevector=  0.0000  0.0000  0.0000  ngfft=  30  30  30
         ecut(hartree)=     50.000   => boxcut(ratio)=   2.00790
--------------------------------------------------------------------------------


================================================================================
 prteigrs : about to open file Fe_e50_k4_noSO.o_DS4_EIG

 SPIN UP channel
 Non-SCF case, kpt    1 (  0.12502  0.12498  0.12502), residuals and eigenvalues=
  1.81E-17  2.40E-17  9.19E-17  5.91E-18  1.80E-17  1.16E-17  9.45E-17  5.07E-15
  3.89E-16  1.47E-15  3.88E-17  3.69E-17  4.90E-17  8.01E-13  3.77E-04
 -2.9272E+00 -1.6756E+00 -1.6697E+00 -1.6697E+00  2.2233E-01  3.2245E-01
  3.2245E-01  4.0847E-01  4.0847E-01  4.4724E-01  1.0034E+00  1.0034E+00
  1.0437E+00  1.4312E+00  1.6190E+00
 Non-SCF case, kpt    2 (  0.37502  0.12498  0.12502), residuals and eigenvalues=
  1.70E-17  6.49E-17  3.87E-17  1.08E-17  8.26E-18  3.17E-17  8.68E-17  6.42E-17
  5.74E-17  6.65E-17  2.53E-17  5.21E-17  2.25E-17  2.05E-11  5.15E-05
 -2.9250E+00 -1.6777E+00 -1.6728E+00 -1.6697E+00  2.8100E-01  3.1180E-01
  3.5882E-01  4.2009E-01  4.2440E-01  5.7907E-01  6.9375E-01  9.2596E-01
  9.2890E-01  1.4770E+00  1.6272E+00
 Non-SCF case, kpt    3 ( -0.12498  0.12498  0.12502), residuals and eigenvalues=
  6.98E-17  4.58E-17  6.58E-17  1.20E-17  2.35E-17  3.12E-16  2.22E-16  1.44E-15
  1.43E-15  3.76E-15  4.44E-13  2.02E-10  4.61E-11  3.30E-11  5.43E-11
 -2.9277E+00 -1.6702E+00 -1.6694E+00 -1.6694E+00  1.4742E-01  3.5813E-01
  3.5813E-01  3.6803E-01  3.8494E-01  4.1849E-01  1.1800E+00  1.2392E+00
  1.2392E+00  1.2809E+00  1.4575E+00
 Non-SCF case, kpt    4 ( -0.37498  0.37498  0.12502), residuals and eigenvalues=
  7.90E-17  6.81E-17  9.67E-17  5.93E-17  5.62E-18  1.55E-16  2.47E-17  5.86E-15
  7.09E-15  2.83E-16  4.46E-16  8.24E-15  1.09E-16  1.50E-09  3.92E-08
 -2.9261E+00 -1.6774E+00 -1.6722E+00 -1.6695E+00  2.5665E-01  3.3248E-01
  3.3976E-01  3.9569E-01  4.4693E-01  4.5245E-01  8.0304E-01  1.0562E+00
  1.0805E+00  1.3650E+00  1.4066E+00
 Non-SCF case, kpt    5 ( -0.37498 -0.37502  0.12502), residuals and eigenvalues=
  1.52E-17  2.44E-17  1.80E-17  1.63E-17  4.76E-17  4.39E-17  3.23E-17  3.13E-15
  1.20E-15  7.21E-17  2.42E-16  2.61E-17  2.77E-13  2.90E-12  3.19E-14
 -2.9248E+00 -1.6764E+00 -1.6764E+00 -1.6705E+00  3.0902E-01  3.0902E-01
  3.2698E-01  4.2767E-01  4.2768E-01  6.7903E-01  6.7908E-01  7.4487E-01
  1.2689E+00  1.2814E+00  1.2814E+00
 Non-SCF case, kpt    6 ( -0.37498  0.37498  0.37502), residuals and eigenvalues=
  4.66E-17  4.21E-17  7.38E-18  8.21E-17  4.83E-17  1.92E-17  8.31E-17  3.23E-17
  9.40E-17  1.85E-17  7.99E-17  2.88E-17  2.30E-15  5.60E-17  9.55E-15
 -2.9240E+00 -1.6761E+00 -1.6750E+00 -1.6750E+00  2.7524E-01  2.8423E-01
  4.2164E-01  4.2164E-01  4.4961E-01  5.8475E-01  8.3809E-01  8.3809E-01
  1.0326E+00  1.0624E+00  1.3112E+00

 SPIN DOWN channel
 Non-SCF case, kpt    1 (  0.12502  0.12498  0.12502), residuals and eigenvalues=
  1.48E-17  3.05E-17  1.33E-17  6.70E-18  2.29E-17  6.43E-17  6.13E-17  6.31E-15
  7.56E-16  1.22E-15  2.35E-16  1.97E-16  4.30E-17  6.66E-13  2.68E-04
 -2.8271E+00 -1.5795E+00 -1.5729E+00 -1.5729E+00  2.4179E-01  3.8527E-01
  3.8527E-01  5.0022E-01  5.0023E-01  5.1960E-01  1.0344E+00  1.0344E+00
  1.0755E+00  1.4380E+00  1.6426E+00
 Non-SCF case, kpt    2 (  0.37502  0.12498  0.12502), residuals and eigenvalues=
  1.47E-17  6.56E-17  4.42E-17  1.12E-17  2.40E-17  1.53E-17  8.31E-17  6.77E-17
  5.24E-17  8.81E-17  1.06E-17  4.48E-17  1.35E-17  3.36E-12  1.28E-06
 -2.8248E+00 -1.5818E+00 -1.5763E+00 -1.5729E+00  3.2943E-01  3.7012E-01
  3.9866E-01  5.1051E-01  5.1974E-01  6.3441E-01  7.4413E-01  9.5658E-01
  9.5797E-01  1.4934E+00  1.6550E+00
 Non-SCF case, kpt    3 ( -0.12498  0.12498  0.12502), residuals and eigenvalues=
  4.88E-17  4.03E-17  4.78E-17  1.03E-17  1.38E-17  3.53E-16  2.70E-16  8.23E-16
  2.06E-15  6.65E-15  3.61E-13  1.12E-10  2.46E-11  5.46E-11  8.50E-11
 -2.8276E+00 -1.5735E+00 -1.5726E+00 -1.5726E+00  1.6414E-01  4.2536E-01
  4.2536E-01  4.3800E-01  4.7238E-01  5.1290E-01  1.2010E+00  1.2652E+00
  1.2652E+00  1.3042E+00  1.4794E+00
 Non-SCF case, kpt    4 ( -0.37498  0.37498  0.12502), residuals and eigenvalues=
  7.47E-17  8.69E-17  9.17E-17  7.79E-17  2.33E-17  6.80E-17  2.33E-17  5.09E-15
  1.28E-14  4.37E-15  3.55E-15  6.12E-14  1.27E-15  1.68E-08  1.40E-07
 -2.8259E+00 -1.5815E+00 -1.5756E+00 -1.5727E+00  2.9121E-01  3.9632E-01
  3.9696E-01  4.7487E-01  5.2407E-01  5.3269E-01  8.4633E-01  1.0869E+00
  1.1032E+00  1.3896E+00  1.4343E+00
 Non-SCF case, kpt    5 ( -0.37498 -0.37502  0.12502), residuals and eigenvalues=
  7.36E-17  2.55E-17  1.48E-17  1.33E-17  1.75E-17  1.36E-17  9.87E-18  4.31E-15
  4.48E-16  2.49E-16  7.00E-17  3.94E-17  2.31E-13  1.09E-12  6.60E-13
 -2.8246E+00 -1.5804E+00 -1.5804E+00 -1.5738E+00  3.6699E-01  3.6700E-01
  3.8478E-01  5.0575E-01  5.0576E-01  7.2767E-01  7.2771E-01  7.8303E-01
  1.2953E+00  1.3062E+00  1.3062E+00
 Non-SCF case, kpt    6 ( -0.37498  0.37498  0.37502), residuals and eigenvalues=
  3.73E-17  5.38E-17  1.20E-17  2.52E-18  6.32E-17  3.80E-17  2.73E-17  1.90E-17
  1.42E-16  6.83E-18  5.56E-17  6.68E-18  2.66E-14  1.08E-17  3.89E-14
 -2.8237E+00 -1.5800E+00 -1.5788E+00 -1.5788E+00  3.3185E-01  3.5046E-01
  4.9184E-01  4.9184E-01  5.2652E-01  6.2714E-01  8.6678E-01  8.6678E-01
  1.0803E+00  1.0981E+00  1.3453E+00


--- !ResultsGS
iteration_state: {dtset: 4, }
comment   : Summary of ground state results
lattice_vectors:
- [ -2.7100000,   2.7100000,   2.7100000, ]
- [  2.7100000,  -2.7100000,   2.7100000, ]
- [  2.7100000,   2.7100000,  -2.7100000, ]
lattice_lengths: [   4.69386,    4.69386,    4.69386, ]
lattice_angles: [109.471, 109.471, 109.471, ] # degrees, (23, 13, 12)
lattice_volume:   7.9610044E+01
convergence: {deltae:  0.000E+00, res2:  0.000E+00, residm:  9.666E-17, diffor:  0.000E+00, }
etotal    :  -1.22686102E+02
entropy   :   0.00000000E+00
fermie    :   4.49862843E-01
cartesian_stress_tensor: null
pressure_GPa: null
xred      :
- [  0.0000E+00,   0.0000E+00,   0.0000E+00, Fe]
cartesian_forces: null
force_length_stats: {min: null, max: null, mean: null, }
...

 Integrated electronic and magnetization densities in atomic spheres:
 ---------------------------------------------------------------------
 Radius=ratsph(iatom), smearing ratsm=  0.0000. Diff(up-dn)=approximate z local magnetic moment.
 Atom    Radius    up_density   dn_density  Total(up+dn)  Diff(up-dn)
    1   2.00000     7.984740     5.922111     13.906851     2.062629
 ---------------------------------------------------------------------
  Sum:              7.984740     5.922111     13.906851     2.062629
 Total magnetization (from the atomic spheres):             2.062629
 Total magnetization (exact up - dn):                       2.077324

======================================================================
 Calculating and writing out Kohn-Sham electronic Structure file
 Using conjugate gradient wavefunctions and energies (kssform=3)

 outkss : COMMENT - 
 At least one NC pseudopotential has more that one projector per angular channel
 Note that inclvkb==0 should be used in screening, since the evaluation of the commutator
 for this particular case is not implemented yet
 outkss: Not allowed options found !
 Program does not stop but _KSS file will not be created...
 outkss: see the log file for more information.
================================================================================

 ----iterations are completed or convergence reached----

 Mean square residual over all n,k,spin=   37.464E-18; max=  96.663E-18
 reduced coordinates (array xred) for    1 atoms
       0.000000000000      0.000000000000      0.000000000000

 cartesian coordinates (angstrom) at end:
    1      0.00000000000000     0.00000000000000     0.00000000000000
 length scales=  5.420000000000  5.420000000000  5.420000000000 bohr
              =  2.868140470558  2.868140470558  2.868140470558 angstroms
 prteigrs : about to open file Fe_e50_k4_noSO.o_DS4_EIG
 Eigenvalues (   eV  ) for nkpt=   6  k points, SPIN UP:
 kpt#   1, nband= 15, wtk=  1.00000, kpt=  0.1250  0.1250  0.1250 (reduced coord)
 -79.65449  -45.59579  -45.43400  -45.43398    6.04982    8.77427    8.77429   11.11495
  11.11504   12.16990   27.30429   27.30507   28.39973   38.94401   44.05432
 kpt#   2, nband= 15, wtk=  1.00000, kpt=  0.3750  0.1250  0.1250 (reduced coord)
 -79.59418  -45.65213  -45.51818  -45.43376    7.64652    8.48454    9.76407   11.43115
  11.54841   15.75740   18.87795   25.19654   25.27671   40.19081   44.27717
 kpt#   3, nband= 15, wtk=  1.00000, kpt= -0.1250  0.1250  0.1250 (reduced coord)
 -79.66641  -45.44823  -45.42741  -45.42741    4.01148    9.74527    9.74527   10.01448
  10.47481   11.38760   32.10949   33.71990   33.71990   34.85490   39.65992
 kpt#   4, nband= 15, wtk=  1.00000, kpt= -0.3750  0.3750  0.1250 (reduced coord)
 -79.62360  -45.64560  -45.50266  -45.43005    6.98370    9.04727    9.24523   10.76718
  12.16156   12.31180   21.85175   28.73987   29.40190   37.14303   38.27556
 kpt#   5, nband= 15, wtk=  1.00000, kpt= -0.3750 -0.3750  0.1250 (reduced coord)
 -79.58917  -45.61747  -45.61745  -45.45645    8.40874    8.40884    8.89762   11.63756
  11.63782   18.47739   18.47875   20.26902   34.52769   34.86819   34.86898
 kpt#   6, nband= 15, wtk=  1.00000, kpt= -0.3750  0.3750  0.3750 (reduced coord)
 -79.56580  -45.60892  -45.57997  -45.57997    7.48967    7.73426   11.47354   11.47354
  12.23438   15.91178   22.80563   22.80563   28.09975   28.90972   35.67974
 Eigenvalues (   eV  ) for nkpt=   6  k points, SPIN DOWN:
 kpt#   1, nband= 15, wtk=  1.00000, kpt=  0.1250  0.1250  0.1250 (reduced coord)
 -76.92877  -42.98024  -42.79989  -42.79988    6.57935   10.48366   10.48367   13.61168
  13.61182   14.13911   28.14800   28.14870   29.26497   39.12974   44.69767
 kpt#   2, nband= 15, wtk=  1.00000, kpt=  0.3750  0.1250  0.1250 (reduced coord)
 -76.86684  -43.04351  -42.89409  -42.80082    8.96432   10.07150   10.84820   13.89168
  14.14297   17.26310   20.24892   26.02978   26.06775   40.63756   45.03503
 kpt#   3, nband= 15, wtk=  1.00000, kpt= -0.1250  0.1250  0.1250 (reduced coord)
 -76.94312  -42.81706  -42.79246  -42.79246    4.46642   11.57473   11.57473   11.91855
  12.85422   13.95684   32.68009   34.42685   34.42685   35.49013   40.25549
 kpt#   4, nband= 15, wtk=  1.00000, kpt= -0.3750  0.3750  0.1250 (reduced coord)
 -76.89655  -43.03604  -42.87552  -42.79575    7.92412   10.78455   10.80178   12.92196
  14.26060   14.49531   23.02991   29.57699   30.01914   37.81285   39.02913
 kpt#   5, nband= 15, wtk=  1.00000, kpt= -0.3750 -0.3750  0.1250 (reduced coord)
 -76.86077  -43.00418  -43.00416  -42.82477    9.98639    9.98645   10.47053   13.76223
  13.76251   19.80081   19.80211   21.30726   35.24699   35.54232   35.54307
 kpt#   6, nband= 15, wtk=  1.00000, kpt= -0.3750  0.3750  0.3750 (reduced coord)
 -76.83665  -42.99418  -42.96210  -42.96210    9.03016    9.53663   13.38357   13.38357
  14.32723   17.06541   23.58627   23.58627   29.39588   29.88062   36.60839

================================================================================
== DATASET  5 ==================================================================
-   mpi_nproc: 1, omp_nthreads: 1 (-1 if OMP is not activated)


--- !DatasetInfo
iteration_state: {dtset: 5, }
dimensions: {natom: 1, nkpt: 6, mband: 15, nsppol: 2, nspinor: 1, nspden: 2, mpw: 1358, }
cutoff_energies: {ecut:  50.0, pawecutdg:  -1.0, }
electrons: {nelect:   1.60000000E+01, charge:   0.00000000E+00, occopt:   7.00000000E+00, tsmear:   5.00000000E-03, }
meta: {optdriver: 0, ionmov: 0, optcell: 0, iscf: -2, paral_kgb: 0, }
...

 mkfilename : getden/=0, take file _DEN from output of DATASET   1.

 Exchange-correlation functional for the present dataset will be:
  LDA: new Teter (4/93) with spin-polarized option - ixc=1
 Citation for XC functional:
  S. Goedecker, M. Teter, J. Huetter, PRB 54, 1703 (1996)

 Real(R)+Recip(G) space primitive vectors, cartesian coordinates (Bohr,Bohr^-1):
 R(1)= -2.7100000  2.7100000  2.7100000  G(1)=  0.0000000  0.1845018  0.1845018
 R(2)=  2.7100000 -2.7100000  2.7100000  G(2)=  0.1845018  0.0000000  0.1845018
 R(3)=  2.7100000  2.7100000 -2.7100000  G(3)=  0.1845018  0.1845018  0.0000000
 Unit cell volume ucvol=  7.9610044E+01 bohr^3
 Angles (23,13,12)=  1.09471221E+02  1.09471221E+02  1.09471221E+02 degrees

 getcut: wavevector=  0.0000  0.0000  0.0000  ngfft=  30  30  30
         ecut(hartree)=     50.000   => boxcut(ratio)=   2.00790
[...]
                       0.000000
                       1.000000  1.000000  1.000000  1.000000  1.000000  1.000000
                       1.000000  1.000000  0.978258  0.000000  0.000000  0.000000
                       0.000000  0.000000  0.000000  0.000000  0.000000  0.000000
                       0.000000
                       1.000000  1.000000  1.000000  1.000000  1.000000  1.000000
                       1.000000  1.000000  0.119151  0.000000  0.000000  0.000000
                       0.000000  0.000000  0.000000  0.000000  0.000000  0.000000
                       0.000000
                       1.000000  1.000000  1.000000  1.000000  1.000000  1.000000
                       1.000000  1.000000  1.000000  0.000000  0.000000  0.000000
                       0.000000  0.000000  0.000000  0.000000  0.000000  0.000000
                       0.000000
                       1.000000  1.000000  1.000000  1.000000  1.000000  1.000000
                       1.000000  1.000000  0.011802  0.000000  0.000000  0.000000
                       0.000000  0.000000  0.000000  0.000000  0.000000  0.000000
                       0.000000
                       1.000000  1.000000  1.000000  1.000000  1.000000  1.000000
                       1.000000  0.193700  0.193700  0.000000  0.000000  0.000000
                       0.000000  0.000000  0.000000  0.000000  0.000000  0.000000
                       0.000000
                       1.000000  1.000000  1.000000  1.000000  1.000000  1.000000
                       0.227934  0.227934  0.000112  0.000000  0.000000  0.000000
                       0.000000  0.000000  0.000000  0.000000  0.000000  0.000000
                       0.000000
                       1.000000  1.000000  1.000000  1.000000  1.000000  1.000000
                       1.000000  0.540151  0.000000  0.000000  0.000000  0.000000
                       0.000000  0.000000  0.000000  0.000000  0.000000  0.000000
                       0.000000
                       1.000000  1.000000  1.000000  1.000000  1.000000  1.000000
                       1.000000  0.000000  0.000000  0.000000  0.000000  0.000000
                       0.000000  0.000000  0.000000  0.000000  0.000000  0.000000
                       0.000000
                       1.000000  1.000000  1.000000  1.000000  1.000000  1.000000
                       1.000000  0.000000  0.000000  0.000000  0.000000  0.000000
                       0.000000  0.000000  0.000000  0.000000  0.000000  0.000000
                       0.000000
                       1.000000  1.000000  1.000000  1.000000  1.000000  1.000000
                       1.000000  0.000000  0.000000  0.000000  0.000000  0.000000
                       0.000000  0.000000  0.000000  0.000000  0.000000  0.000000
                       0.000000
                       1.000000  1.000000  1.000000  1.000000  1.000000  1.000000
                       1.000000  1.000000  0.000000  0.000000  0.000000  0.000000
                       0.000000  0.000000  0.000000  0.000000  0.000000  0.000000
                       0.000000
                       1.000000  1.000000  1.000000  1.000000  1.000000  1.000000
                       1.000000  0.000000  0.000000  0.000000  0.000000  0.000000
                       0.000000  0.000000  0.000000  0.000000  0.000000  0.000000
                       0.000000
                       1.000000  1.000000  1.000000  1.000000  1.000000  1.000000
                       1.000000  0.000000  0.000000  0.000000  0.000000  0.000000
                       0.000000  0.000000  0.000000  0.000000  0.000000  0.000000
                       0.000000
                       1.000000  1.000000  1.000000  1.000000  1.000000  1.000000
                       1.000000  0.219183  0.000000  0.000000  0.000000  0.000000
                       0.000000  0.000000  0.000000  0.000000  0.000000  0.000000
                       0.000000
                       1.000000  1.000000  1.000000  1.000000  1.000000  1.000000
                       1.000000  0.000000  0.000000  0.000000  0.000000  0.000000
                       0.000000  0.000000  0.000000  0.000000  0.000000  0.000000
                       0.000000
                       1.000000  1.000000  1.000000  1.000000  1.000000  1.000000
                       1.000000  0.000000  0.000000  0.000000  0.000000  0.000000
                       0.000000  0.000000  0.000000  0.000000  0.000000  0.000000
                       0.000000
                       1.000000  1.000000  1.000000  1.000000  1.000000  1.000000
                       1.000000  0.000000  0.000000  0.000000  0.000000  0.000000
                       0.000000  0.000000  0.000000  0.000000  0.000000  0.000000
                       0.000000
                       1.000000  1.000000  1.000000  1.000000  1.000000  1.000000
                       1.000000  0.000000  0.000000  0.000000  0.000000  0.000000
                       0.000000  0.000000  0.000000  0.000000  0.000000  0.000000
                       0.000000
                       1.000000  1.000000  1.000000  1.000000  1.000000  1.000000
                       1.000000  0.000000  0.000000  0.000000  0.000000  0.000000
                       0.000000  0.000000  0.000000  0.000000  0.000000  0.000000
                       0.000000
                       1.000000  1.000000  1.000000  1.000000  1.000000  1.000000
                       1.000000  0.000000  0.000000  0.000000  0.000000  0.000000
                       0.000000  0.000000  0.000000  0.000000  0.000000  0.000000
                       0.000000
                       1.000000  1.000000  1.000000  1.000000  1.000000  1.000000
                       1.000000  0.000000  0.000000  0.000000  0.000000  0.000000
                       0.000000  0.000000  0.000000  0.000000  0.000000  0.000000
                       0.000000
                       1.000000  1.000000  1.000000  1.000000  1.000000  1.000000
                       1.000000  0.000000  0.000000  0.000000  0.000000  0.000000
                       0.000000  0.000000  0.000000  0.000000  0.000000  0.000000
                       0.000000
                       1.000000  1.000000  1.000000  1.000000  1.000000  1.000000
                       1.000000  0.000000  0.000000  0.000000  0.000000  0.000000
                       0.000000  0.000000  0.000000  0.000000  0.000000  0.000000
                       0.000000
                       1.000000  1.000000  1.000000  1.000000  1.000000  1.000000
                       1.000000  0.998434  0.126426  0.000000  0.000000  0.000000
                       0.000000  0.000000  0.000000  0.000000  0.000000  0.000000
                       0.000000
                       1.000000  1.000000  1.000000  1.000000  1.000000  1.000000
                       1.000000  0.076616  0.000000  0.000000  0.000000  0.000000
                       0.000000  0.000000  0.000000  0.000000  0.000000  0.000000
                       0.000000
                       1.000000  1.000000  1.000000  1.000000  1.000000  1.000000
                       1.000000  0.000000  0.000000  0.000000  0.000000  0.000000
                       0.000000  0.000000  0.000000  0.000000  0.000000  0.000000
                       0.000000
                       1.000000  1.000000  1.000000  1.000000  1.000000  1.000000
                       1.000000  0.000000  0.000000  0.000000  0.000000  0.000000
                       0.000000  0.000000  0.000000  0.000000  0.000000  0.000000
                       0.000000
                       1.000000  1.000000  1.000000  1.000000  1.000000  1.000000
                       1.000000  0.000000  0.000000  0.000000  0.000000  0.000000
                       0.000000  0.000000  0.000000  0.000000  0.000000  0.000000
                       0.000000
                       1.000000  1.000000  1.000000  1.000000  1.000000  1.000000
                       0.002951  0.002951  0.000000  0.000000  0.000000  0.000000
                       0.000000  0.000000  0.000000  0.000000  0.000000  0.000000
                       0.000000
                       1.000000  1.000000  1.000000  1.000000  1.000000  1.000000
                       0.000002  0.000000  0.000000  0.000000  0.000000  0.000000
                       0.000000  0.000000  0.000000  0.000000  0.000000  0.000000
                       0.000000
                       1.000000  1.000000  1.000000  1.000000  1.000000  1.000000
                       0.000000  0.000000  0.000000  0.000000  0.000000  0.000000
                       0.000000  0.000000  0.000000  0.000000  0.000000  0.000000
                       0.000000
                       1.000000  1.000000  1.000000  1.000000  1.000000  1.000000
                       0.000000  0.000000  0.000000  0.000000  0.000000  0.000000
                       0.000000  0.000000  0.000000  0.000000  0.000000  0.000000
                       0.000000
           occopt           7
          prtkbff           1
            rprim     -5.0000000000E-01  5.0000000000E-01  5.0000000000E-01
                       5.0000000000E-01 -5.0000000000E-01  5.0000000000E-01
                       5.0000000000E-01  5.0000000000E-01 -5.0000000000E-01
           shiftk      5.00000000E-01  5.00000000E-01  5.00000000E-01
           so_psp           0
          spgroup         229
           spinat      0.0000000000E+00  0.0000000000E+00  5.0000000000E+00
           strten1     2.6706148275E-02  2.6706148275E-02  2.6706148275E-02
                       0.0000000000E+00  0.0000000000E+00  0.0000000000E+00
        symmorphi1          1
        symmorphi2          0
        symmorphi3          1
        symmorphi4          1
        symmorphi5          1
        symmorphi6          1
           symrel      1  0  0   0  1  0   0  0  1      -1  0  0   0 -1  0   0  0 -1
                      -1 -1 -1   0  0  1   0  1  0       1  1  1   0  0 -1   0 -1  0
                       0  1  0   1  0  0  -1 -1 -1       0 -1  0  -1  0  0   1  1  1
                       0  0  1  -1 -1 -1   1  0  0       0  0 -1   1  1  1  -1  0  0
                       0  1  0   1  0  0   0  0  1       0 -1  0  -1  0  0   0  0 -1
                      -1 -1 -1   0  0  1   1  0  0       1  1  1   0  0 -1  -1  0  0
                       1  0  0   0  1  0  -1 -1 -1      -1  0  0   0 -1  0   1  1  1
                       0  0  1  -1 -1 -1   0  1  0       0  0 -1   1  1  1   0 -1  0
                      -1 -1 -1   1  0  0   0  0  1       1  1  1  -1  0  0   0  0 -1
                       0  1  0   0  0  1   1  0  0       0 -1  0   0  0 -1  -1  0  0
                       1  0  0  -1 -1 -1   0  1  0      -1  0  0   1  1  1   0 -1  0
                       0  0  1   0  1  0  -1 -1 -1       0  0 -1   0 -1  0   1  1  1
                       1  0  0  -1 -1 -1   0  0  1      -1  0  0   1  1  1   0  0 -1
                       0  1  0   0  0  1  -1 -1 -1       0 -1  0   0  0 -1   1  1  1
                      -1 -1 -1   1  0  0   0  1  0       1  1  1  -1  0  0   0 -1  0
                       0  0  1   0  1  0   1  0  0       0  0 -1   0 -1  0  -1  0  0
                       0  1  0  -1 -1 -1   0  0  1       0 -1  0   1  1  1   0  0 -1
                       1  0  0   0  0  1  -1 -1 -1      -1  0  0   0  0 -1   1  1  1
                      -1 -1 -1   0  1  0   1  0  0       1  1  1   0 -1  0  -1  0  0
                       0  0  1   1  0  0   0  1  0       0  0 -1  -1  0  0   0 -1  0
                      -1 -1 -1   0  1  0   0  0  1       1  1  1   0 -1  0   0  0 -1
                       1  0  0   0  0  1   0  1  0      -1  0  0   0  0 -1   0 -1  0
                       0  1  0  -1 -1 -1   1  0  0       0 -1  0   1  1  1  -1  0  0
                       0  0  1   1  0  0  -1 -1 -1       0  0 -1  -1  0  0   1  1  1
           toldfe1     1.00000000E-10 Hartree
           toldfe2     0.00000000E+00 Hartree
           toldfe3     0.00000000E+00 Hartree
           toldfe4     0.00000000E+00 Hartree
           toldfe5     0.00000000E+00 Hartree
           toldfe6     0.00000000E+00 Hartree
           tolwfr1     0.00000000E+00
           tolwfr2     1.00000000E-16
           tolwfr3     1.00000000E-16
           tolwfr4     1.00000000E-16
           tolwfr5     1.00000000E-16
           tolwfr6     1.00000000E-16
           tsmear      5.00000000E-03 Hartree
            typat      1
              wtk1       0.01563    0.04688    0.04688    0.02344    0.01172    0.04688
                         0.09375    0.04688    0.01563    0.04688    0.04688    0.04688
                         0.09375    0.04688    0.04688    0.01563    0.02344    0.01172
                         0.04688    0.04688    0.04688    0.04688    0.01172    0.04688
                         0.01563    0.01172
              wtk2       0.12500    0.18750    0.09375    0.37500    0.12500    0.09375
              wtk3       1.00000    1.00000    1.00000    1.00000    1.00000    1.00000
              wtk4       1.00000    1.00000    1.00000    1.00000    1.00000    1.00000
              wtk5       1.00000    1.00000    1.00000    1.00000    1.00000    1.00000
              wtk6       0.00195    0.00586    0.00586    0.00586    0.00586    0.00586
                         0.00586    0.00293    0.00146    0.00586    0.01172    0.01172
                         0.01172    0.01172    0.01172    0.00586    0.00586    0.01172
                         0.01172    0.01172    0.00586    0.00586    0.00586    0.00586
                         0.01172    0.01172    0.00586    0.01172    0.00586    0.00586
                         0.00586    0.01172    0.00586    0.00586    0.01172    0.01172
                         0.00586    0.01172    0.01172    0.00586    0.00586    0.01172
                         0.01172    0.01172    0.00586    0.01172    0.01172    0.00586
                         0.00586    0.01172
                       outvars : Printing only first  50 k-points.
            znucl       26.00000

================================================================================


- Timing analysis has been suppressed with timopt=0



================================================================================

 Suggested references for the acknowledgment of ABINIT usage.

 The users of ABINIT have little formal obligations with respect to the ABINIT group
 (those specified in the GNU General Public License, http://www.gnu.org/copyleft/gpl.txt).
 However, it is common practice in the scientific literature,
 to acknowledge the efforts of people that have made the research possible.
 In this spirit, please find below suggested citations of work written by ABINIT developers,
 corresponding to implementations inside of ABINIT that you have used in the present run.
 Note also that it will be of great value to readers of publications presenting these results,
 to read papers enabling them to understand the theoretical formalism and details
 of the ABINIT implementation.
 For information on why they are suggested, see also https://docs.abinit.org/theory/acknowledgments.
-
- [1] Specification of an extensible and portable file format for electronic structure and crystallographic data
- X. Gonze, C.-O. Almbladh, A. Cucca, D. Caliste, C. Freysoldt, M. Marques, V. Olevano, Y. Pouillon, M.J. Verstraete,
- Comput. Material Science 43, 1056 (2008).
- Comment: to be cited in case the ETSF_IO file format is used, i.e. iomode=3.
- DOI and bibtex: see https://docs.abinit.org/theory/bibliography/#gonze2008
-
- [2] The Abinit project: Impact, environment and recent developments.
- Computer Phys. Comm. 248, 107042 (2020).
- X.Gonze, B. Amadon, G. Antonius, F.Arnardi, L.Baguet, J.-M.Beuken,
- J.Bieder, F.Bottin, J.Bouchet, E.Bousquet, N.Brouwer, F.Bruneval,
- G.Brunin, T.Cavignac, J.-B. Charraud, Wei Chen, M.Cote, S.Cottenier,
- J.Denier, G.Geneste, Ph.Ghosez, M.Giantomassi, Y.Gillet, O.Gingras,
- D.R.Hamann, G.Hautier, Xu He, N.Helbig, N.Holzwarth, Y.Jia, F.Jollet,
- W.Lafargue-Dit-Hauret, K.Lejaeghere, M.A.L.Marques, A.Martin, C.Martins,
- H.P.C. Miranda, F.Naccarato, K. Persson, G.Petretto, V.Planes, Y.Pouillon,
- S.Prokhorenko, F.Ricci, G.-M.Rignanese, A.H.Romero, M.M.Schmitt, M.Torrent,
- M.J.van Setten, B.Van Troeye, M.J.Verstraete, G.Zerah and J.W.Zwanzig
- Comment: the fifth generic paper describing the ABINIT project.
- Note that a version of this paper, that is not formatted for Computer Phys. Comm. 
- is available at https://www.abinit.org/sites/default/files/ABINIT20.pdf .
- The licence allows the authors to put it on the Web.
- DOI and bibtex: see https://docs.abinit.org/theory/bibliography/#gonze2020
-
- [3] ABINIT: Overview, and focus on selected capabilities
- J. Chem. Phys. 152, 124102 (2020).
- A. Romero, D.C. Allan, B. Amadon, G. Antonius, T. Applencourt, L.Baguet,
- J.Bieder, F.Bottin, J.Bouchet, E.Bousquet, F.Bruneval,
- G.Brunin, D.Caliste, M.Cote,
- J.Denier, C. Dreyer, Ph.Ghosez, M.Giantomassi, Y.Gillet, O.Gingras,
- D.R.Hamann, G.Hautier, F.Jollet, G. Jomard,
- A.Martin, 
- H.P.C. Miranda, F.Naccarato, G.Petretto, N.A. Pike, V.Planes,
- S.Prokhorenko, T. Rangel, F.Ricci, G.-M.Rignanese, M.Royo, M.Stengel, M.Torrent,
- M.J.van Setten, B.Van Troeye, M.J.Verstraete, J.Wiktor, J.W.Zwanziger, and X.Gonze.
- Comment: a global overview of ABINIT, with focus on selected capabilities .
- Note that a version of this paper, that is not formatted for J. Chem. Phys 
- is available at https://www.abinit.org/sites/default/files/ABINIT20_JPC.pdf .
- The licence allows the authors to put it on the Web.
- DOI and bibtex: see https://docs.abinit.org/theory/bibliography/#romero2020
-
- [4] Recent developments in the ABINIT software package.
- Computer Phys. Comm. 205, 106 (2016).
- X.Gonze, F.Jollet, F.Abreu Araujo, D.Adams, B.Amadon, T.Applencourt,
- C.Audouze, J.-M.Beuken, J.Bieder, A.Bokhanchuk, E.Bousquet, F.Bruneval
- D.Caliste, M.Cote, F.Dahm, F.Da Pieve, M.Delaveau, M.Di Gennaro,
- B.Dorado, C.Espejo, G.Geneste, L.Genovese, A.Gerossier, M.Giantomassi,
- Y.Gillet, D.R.Hamann, L.He, G.Jomard, J.Laflamme Janssen, S.Le Roux,
- A.Levitt, A.Lherbier, F.Liu, I.Lukacevic, A.Martin, C.Martins,
- M.J.T.Oliveira, S.Ponce, Y.Pouillon, T.Rangel, G.-M.Rignanese,
- A.H.Romero, B.Rousseau, O.Rubel, A.A.Shukri, M.Stankovski, M.Torrent,
- M.J.Van Setten, B.Van Troeye, M.J.Verstraete, D.Waroquier, J.Wiktor,
- B.Xu, A.Zhou, J.W.Zwanziger.
- Comment: the fourth generic paper describing the ABINIT project.
- Note that a version of this paper, that is not formatted for Computer Phys. Comm. 
- is available at https://www.abinit.org/sites/default/files/ABINIT16.pdf .
- The licence allows the authors to put it on the Web.
- DOI and bibtex: see https://docs.abinit.org/theory/bibliography/#gonze2016
-
- And optionally:
-
- [5] ABINIT: First-principles approach of materials and nanosystem properties.
- Computer Phys. Comm. 180, 2582-2615 (2009).
- X. Gonze, B. Amadon, P.-M. Anglade, J.-M. Beuken, F. Bottin, P. Boulanger, F. Bruneval,
- D. Caliste, R. Caracas, M. Cote, T. Deutsch, L. Genovese, Ph. Ghosez, M. Giantomassi
- S. Goedecker, D.R. Hamann, P. Hermet, F. Jollet, G. Jomard, S. Leroux, M. Mancini, S. Mazevet,
- M.J.T. Oliveira, G. Onida, Y. Pouillon, T. Rangel, G.-M. Rignanese, D. Sangalli, R. Shaltaf,
- M. Torrent, M.J. Verstraete, G. Zerah, J.W. Zwanziger
- Comment: the third generic paper describing the ABINIT project.
- Note that a version of this paper, that is not formatted for Computer Phys. Comm. 
- is available at https://www.abinit.org/sites/default/files/ABINIT_CPC_v10.pdf .
- The licence allows the authors to put it on the Web.
- DOI and bibtex: see https://docs.abinit.org/theory/bibliography/#gonze2009
-
- Proc.   0 individual time (sec): cpu=        146.1  wall=        156.5

================================================================================

 Calculation completed.
.Delivered  15 WARNINGs and  21 COMMENTs to log file.
+Overall time at end (sec) : cpu=        146.1  wall=        156.5
