
.Version 7.4.1 of ABINIT 
.(MPI version, prepared for a x86_64_linux_gnu5.4 computer) 

.Copyright (C) 1998-2013 ABINIT group . 
 ABINIT comes with ABSOLUTELY NO WARRANTY.
 It is free software, and you are welcome to redistribute it
 under certain conditions (GNU General Public License,
 see ~abinit/COPYING or http://www.gnu.org/copyleft/gpl.txt).

 ABINIT is a project of the Universite Catholique de Louvain,
 Corning Inc. and other collaborators, see ~abinit/doc/developers/contributors.txt .
 Please read ~abinit/doc/users/acknowledgments.html for suggested
 acknowledgments of the ABINIT effort.
 For more information, see http://www.abinit.org .

.Starting date : Tue 24 Jul 2018.
- ( at 15h13 )
  

 herald :  WARNING -
  The starting date is more than 3 years after the initial release
  of this version of ABINIT, namely Aug 2013.
  This version of ABINIT is not supported anymore.
  Action : please, switch to a more recent version of ABINIT.
- input  file    -> Fe_noSO.in
- output file    -> Fe_e50_k4_noSO.out
- root for input  files -> Fe_e50_k4_noSO.i
- root for output files -> Fe_e50_k4_noSO.o


 DATASET    1 : space group Im -3 m (#229); Bravais cI (body-center cubic)
================================================================================
 Values of the parameters that define the memory need for DATASET  1.
   intxc =         0  ionmov =         0    iscf =         7 xclevel =         1
  lmnmax =         5   lnmax =         5   mband =        10  mffmem =         1
P  mgfft =        30   mkmem =        26 mpssoang=         3     mpw =      1365
  mqgrid =      3001   natom =         1    nfft =     27000    nkpt =        26
  nloalg =         4  nspden =         2 nspinor =         1  nsppol =         2
    nsym =        48  n1xccc =         0  ntypat =         1  occopt =         7
================================================================================
P This job should need less than                      24.471 Mbytes of memory.
  Rough estimation (10% accuracy) of disk space for files :
_ WF disk file :     10.833 Mbytes ; DEN or POT disk file :      0.414 Mbytes.
================================================================================


 DATASET    2 : space group Im -3 m (#229); Bravais cI (body-center cubic)
================================================================================
 Values of the parameters that define the memory need for DATASET  2.
   intxc =         0  ionmov =         0    iscf =        -2 xclevel =         1
  lmnmax =         5   lnmax =         5   mband =        15  mffmem =         1
P  mgfft =        30   mkmem =         6 mpssoang=         3     mpw =      1358
  mqgrid =      3001   natom =         1    nfft =     27000    nkpt =         6
  nloalg =         4  nspden =         2 nspinor =         1  nsppol =         2
    nsym =        48  n1xccc =         0  ntypat =         1  occopt =         7
================================================================================
P This job should need less than                      10.422 Mbytes of memory.
  Rough estimation (10% accuracy) of disk space for files :
_ WF disk file :      3.732 Mbytes ; DEN or POT disk file :      0.414 Mbytes.
================================================================================

--------------------------------------------------------------------------------
------------- Echo of variables that govern the present computation ------------
--------------------------------------------------------------------------------
-
- outvars: echo of selected default values                                      
-   accesswff0 =  0 , fftalg0 =112 , wfoptalg0 =  0
-
- outvars: echo of global parameters not present in the input file              
-  max_nthreads =    0
-
 -outvars: echo values of preprocessed input variables --------
            acell      5.4200000000E+00  5.4200000000E+00  5.4200000000E+00 Bohr
              amu      5.58470000E+01
             ecut      5.00000000E+01 Hartree
           enunit           1
           getden1          0
           getden2          1
             iscf1          7
             iscf2         -2
           jdtset        1    2
              kpt1     6.25000000E-02  6.25000000E-02  6.25000000E-02
                       1.87500000E-01  6.25000000E-02  6.25000000E-02
                       3.12500000E-01  6.25000000E-02  6.25000000E-02
                       4.37500000E-01  6.25000000E-02  6.25000000E-02
                      -6.25000000E-02  6.25000000E-02  6.25000000E-02
                       1.87500000E-01  1.87500000E-01  6.25000000E-02
                       3.12500000E-01  1.87500000E-01  6.25000000E-02
                      -1.87500000E-01  1.87500000E-01  6.25000000E-02
                       3.12500000E-01  3.12500000E-01  6.25000000E-02
                      -3.12500000E-01  3.12500000E-01  6.25000000E-02
                      -1.87500000E-01  3.12500000E-01  6.25000000E-02
                      -4.37500000E-01  4.37500000E-01  6.25000000E-02
                      -3.12500000E-01  4.37500000E-01  6.25000000E-02
                      -4.37500000E-01 -4.37500000E-01  6.25000000E-02
                      -3.12500000E-01 -4.37500000E-01  6.25000000E-02
                       1.87500000E-01  1.87500000E-01  1.87500000E-01
                       3.12500000E-01  1.87500000E-01  1.87500000E-01
                      -1.87500000E-01  1.87500000E-01  1.87500000E-01
                      -3.12500000E-01  3.12500000E-01  1.87500000E-01
                      -4.37500000E-01  4.37500000E-01  1.87500000E-01
                      -3.12500000E-01  4.37500000E-01  1.87500000E-01
                      -4.37500000E-01 -4.37500000E-01  1.87500000E-01
                      -3.12500000E-01  3.12500000E-01  3.12500000E-01
                      -4.37500000E-01  4.37500000E-01  3.12500000E-01
                      -4.37500000E-01 -4.37500000E-01  3.12500000E-01
                      -4.37500000E-01  4.37500000E-01  4.37500000E-01
              kpt2     1.25000000E-01  1.25000000E-01  1.25000000E-01
                       3.75000000E-01  1.25000000E-01  1.25000000E-01
                      -1.25000000E-01  1.25000000E-01  1.25000000E-01
                      -3.75000000E-01  3.75000000E-01  1.25000000E-01
                      -3.75000000E-01 -3.75000000E-01  1.25000000E-01
                      -3.75000000E-01  3.75000000E-01  3.75000000E-01
           kptopt           4
         kptrlatt1       8    0    0      0    8    0      0    0    8
         kptrlatt2       4    0    0      0    4    0      0    0    4
          kptrlen1     3.75508615E+01
          kptrlen2     1.87754308E+01
          kssform1          1
          kssform2          3
P           mkmem1         26
P           mkmem2          6
            natom           1
            nband1         10
            nband2         15
         nbandkss1          0
         nbandkss2         13
           nbdbuf1          0
           nbdbuf2         10
           ndtset           2
            ngfft          30      30      30
             nkpt1         26
             nkpt2          6
           nspden           2
           nsppol           2
            nstep1        100
            nstep2        300
             nsym          48
           ntypat           1
              occ      1.000000  1.000000  1.000000  1.000000  1.000000  1.000000
                       1.000000  1.000000  0.000000  0.000000
                       1.000000  1.000000  1.000000  1.000000  1.000000  1.000000
                       1.000000  1.000000  0.000000  0.000000
                       1.000000  1.000000  1.000000  1.000000  1.000000  1.000000
                       1.000000  1.000000  0.000000  0.000000
                       1.000000  1.000000  1.000000  1.000000  1.000000  1.000000
                       1.000000  1.000000  0.000000  0.000000
                       1.000000  1.000000  1.000000  1.000000  1.000000  1.000000
                       1.000000  1.000000  0.000000  0.000000
                       1.000000  1.000000  1.000000  1.000000  1.000000  1.000000
                       1.000000  1.000000  0.000000  0.000000
                       1.000000  1.000000  1.000000  1.000000  1.000000  1.000000
                       1.000000  1.000000  0.000000  0.000000
                       1.000000  1.000000  1.000000  1.000000  1.000000  1.000000
                       1.000000  1.000000  0.000000  0.000000
                       1.000000  1.000000  1.000000  1.000000  1.000000  1.000000
                       1.000000  1.000000  0.000000  0.000000
                       1.000000  1.000000  1.000000  1.000000  1.000000  1.000000
                       1.000000  1.000000  0.000000  0.000000
                       1.000000  1.000000  1.000000  1.000000  1.000000  1.000000
                       1.000000  1.000000  0.000000  0.000000
                       1.000000  1.000000  1.000000  1.000000  1.000000  1.000000
                       1.000000  1.000000  0.000000  0.000000
                       1.000000  1.000000  1.000000  1.000000  1.000000  1.000000
                       1.000000  1.000000  0.000000  0.000000
                       1.000000  1.000000  1.000000  1.000000  1.000000  1.000000
                       1.000000  1.000000  0.000000  0.000000
                       1.000000  1.000000  1.000000  1.000000  1.000000  1.000000
                       1.000000  1.000000  0.000000  0.000000
                       1.000000  1.000000  1.000000  1.000000  1.000000  1.000000
                       1.000000  1.000000  0.000000  0.000000
                       1.000000  1.000000  1.000000  1.000000  1.000000  1.000000
                       1.000000  1.000000  0.000000  0.000000
                       1.000000  1.000000  1.000000  1.000000  1.000000  1.000000
                       1.000000  1.000000  0.000000  0.000000
                       1.000000  1.000000  1.000000  1.000000  1.000000  1.000000
                       1.000000  1.000000  0.000000  0.000000
                       1.000000  1.000000  1.000000  1.000000  1.000000  1.000000
                       1.000000  1.000000  0.000000  0.000000
                       1.000000  1.000000  1.000000  1.000000  1.000000  1.000000
                       1.000000  1.000000  0.000000  0.000000
                       1.000000  1.000000  1.000000  1.000000  1.000000  1.000000
                       1.000000  1.000000  0.000000  0.000000
                       1.000000  1.000000  1.000000  1.000000  1.000000  1.000000
                       1.000000  1.000000  0.000000  0.000000
                       1.000000  1.000000  1.000000  1.000000  1.000000  1.000000
                       1.000000  1.000000  0.000000  0.000000
                       1.000000  1.000000  1.000000  1.000000  1.000000  1.000000
                       1.000000  1.000000  0.000000  0.000000
                       1.000000  1.000000  1.000000  1.000000  1.000000  1.000000
                       1.000000  1.000000  0.000000  0.000000
                       1.000000  1.000000  1.000000  1.000000  1.000000  1.000000
                       1.000000  1.000000  0.000000  0.000000
                       1.000000  1.000000  1.000000  1.000000  1.000000  1.000000
                       1.000000  1.000000  0.000000  0.000000
                       1.000000  1.000000  1.000000  1.000000  1.000000  1.000000
                       1.000000  1.000000  0.000000  0.000000
                       1.000000  1.000000  1.000000  1.000000  1.000000  1.000000
                       1.000000  1.000000  0.000000  0.000000
                       1.000000  1.000000  1.000000  1.000000  1.000000  1.000000
                       1.000000  1.000000  0.000000  0.000000
                       1.000000  1.000000  1.000000  1.000000  1.000000  1.000000
                       1.000000  1.000000  0.000000  0.000000
                       1.000000  1.000000  1.000000  1.000000  1.000000  1.000000
                       1.000000  1.000000  0.000000  0.000000
                       1.000000  1.000000  1.000000  1.000000  1.000000  1.000000
                       1.000000  1.000000  0.000000  0.000000
                       1.000000  1.000000  1.000000  1.000000  1.000000  1.000000
                       1.000000  1.000000  0.000000  0.000000
                       1.000000  1.000000  1.000000  1.000000  1.000000  1.000000
                       1.000000  1.000000  0.000000  0.000000
                       1.000000  1.000000  1.000000  1.000000  1.000000  1.000000
                       1.000000  1.000000  0.000000  0.000000
                       1.000000  1.000000  1.000000  1.000000  1.000000  1.000000
                       1.000000  1.000000  0.000000  0.000000
                       1.000000  1.000000  1.000000  1.000000  1.000000  1.000000
                       1.000000  1.000000  0.000000  0.000000
                       1.000000  1.000000  1.000000  1.000000  1.000000  1.000000
                       1.000000  1.000000  0.000000  0.000000
                       1.000000  1.000000  1.000000  1.000000  1.000000  1.000000
                       1.000000  1.000000  0.000000  0.000000
                       1.000000  1.000000  1.000000  1.000000  1.000000  1.000000
                       1.000000  1.000000  0.000000  0.000000
                       1.000000  1.000000  1.000000  1.000000  1.000000  1.000000
                       1.000000  1.000000  0.000000  0.000000
                       1.000000  1.000000  1.000000  1.000000  1.000000  1.000000
                       1.000000  1.000000  0.000000  0.000000
                       1.000000  1.000000  1.000000  1.000000  1.000000  1.000000
                       1.000000  1.000000  0.000000  0.000000
                       1.000000  1.000000  1.000000  1.000000  1.000000  1.000000
                       1.000000  1.000000  0.000000  0.000000
                       1.000000  1.000000  1.000000  1.000000  1.000000  1.000000
                       1.000000  1.000000  0.000000  0.000000
                       1.000000  1.000000  1.000000  1.000000  1.000000  1.000000
                       1.000000  1.000000  0.000000  0.000000
                       1.000000  1.000000  1.000000  1.000000  1.000000  1.000000
                       1.000000  1.000000  0.000000  0.000000
                       1.000000  1.000000  1.000000  1.000000  1.000000  1.000000
                       1.000000  1.000000  0.000000  0.000000
                       1.000000  1.000000  1.000000  1.000000  1.000000  1.000000
                       1.000000  1.000000  0.000000  0.000000
                       1.000000  1.000000  1.000000  1.000000  1.000000  1.000000
                       1.000000  1.000000  0.000000  0.000000
           occopt           7
            rprim     -5.0000000000E-01  5.0000000000E-01  5.0000000000E-01
                       5.0000000000E-01 -5.0000000000E-01  5.0000000000E-01
                       5.0000000000E-01  5.0000000000E-01 -5.0000000000E-01
           shiftk      5.00000000E-01  5.00000000E-01  5.00000000E-01
           so_psp           0
          spgroup         229
           spinat      0.0000000000E+00  0.0000000000E+00  5.0000000000E+00
        symmorphi1          1
        symmorphi2          0
           symrel      1  0  0   0  1  0   0  0  1      -1  0  0   0 -1  0   0  0 -1
                      -1 -1 -1   0  0  1   0  1  0       1  1  1   0  0 -1   0 -1  0
                       0  1  0   1  0  0  -1 -1 -1       0 -1  0  -1  0  0   1  1  1
                       0  0  1  -1 -1 -1   1  0  0       0  0 -1   1  1  1  -1  0  0
                       0  1  0   1  0  0   0  0  1       0 -1  0  -1  0  0   0  0 -1
                      -1 -1 -1   0  0  1   1  0  0       1  1  1   0  0 -1  -1  0  0
                       1  0  0   0  1  0  -1 -1 -1      -1  0  0   0 -1  0   1  1  1
                       0  0  1  -1 -1 -1   0  1  0       0  0 -1   1  1  1   0 -1  0
                      -1 -1 -1   1  0  0   0  0  1       1  1  1  -1  0  0   0  0 -1
                       0  1  0   0  0  1   1  0  0       0 -1  0   0  0 -1  -1  0  0
                       1  0  0  -1 -1 -1   0  1  0      -1  0  0   1  1  1   0 -1  0
                       0  0  1   0  1  0  -1 -1 -1       0  0 -1   0 -1  0   1  1  1
                       1  0  0  -1 -1 -1   0  0  1      -1  0  0   1  1  1   0  0 -1
                       0  1  0   0  0  1  -1 -1 -1       0 -1  0   0  0 -1   1  1  1
                      -1 -1 -1   1  0  0   0  1  0       1  1  1  -1  0  0   0 -1  0
                       0  0  1   0  1  0   1  0  0       0  0 -1   0 -1  0  -1  0  0
                       0  1  0  -1 -1 -1   0  0  1       0 -1  0   1  1  1   0  0 -1
                       1  0  0   0  0  1  -1 -1 -1      -1  0  0   0  0 -1   1  1  1
                      -1 -1 -1   0  1  0   1  0  0       1  1  1   0 -1  0  -1  0  0
                       0  0  1   1  0  0   0  1  0       0  0 -1  -1  0  0   0 -1  0
                      -1 -1 -1   0  1  0   0  0  1       1  1  1   0 -1  0   0  0 -1
                       1  0  0   0  0  1   0  1  0      -1  0  0   0  0 -1   0 -1  0
                       0  1  0  -1 -1 -1   1  0  0       0 -1  0   1  1  1  -1  0  0
                       0  0  1   1  0  0  -1 -1 -1       0  0 -1  -1  0  0   1  1  1
           toldfe1     1.00000000E-08 Hartree
           toldfe2     0.00000000E+00 Hartree
           tolwfr1     0.00000000E+00
           tolwfr2     1.00000000E-10
           tsmear      5.00000000E-03 Hartree
            typat      1
              wtk1       0.01563    0.04688    0.04688    0.02344    0.01172    0.04688
                         0.09375    0.04688    0.01563    0.04688    0.04688    0.04688
                         0.09375    0.04688    0.04688    0.01563    0.02344    0.01172
                         0.04688    0.04688    0.04688    0.04688    0.01172    0.04688
                         0.01563    0.01172
              wtk2       0.12500    0.18750    0.09375    0.37500    0.12500    0.09375
            znucl       26.00000

================================================================================

 chkinp: Checking input parameters for consistency, jdtset=   1.

 chkinp: Checking input parameters for consistency, jdtset=   2.

================================================================================
== DATASET  1 ==================================================================
-   nproc =    1

 Exchange-correlation functional for the present dataset will be:
  LDA: new Teter (4/93) with spin-polarized option - ixc=1
 Citation for XC functional:
  S. Goedecker, M. Teter, J. Huetter, PRB 54, 1703 (1996)

 Real(R)+Recip(G) space primitive vectors, cartesian coordinates (Bohr,Bohr^-1):
 R(1)= -2.7100000  2.7100000  2.7100000  G(1)=  0.0000000  0.1845018  0.1845018
 R(2)=  2.7100000 -2.7100000  2.7100000  G(2)=  0.1845018  0.0000000  0.1845018
 R(3)=  2.7100000  2.7100000 -2.7100000  G(3)=  0.1845018  0.1845018  0.0000000
 Unit cell volume ucvol=  7.9610044E+01 bohr^3
 Angles (23,13,12)=  1.09471221E+02  1.09471221E+02  1.09471221E+02 degrees

 getcut: wavevector=  0.0000  0.0000  0.0000  ngfft=  30  30  30
         ecut(hartree)=     50.000   => boxcut(ratio)=   2.00790

--- Pseudopotential description ------------------------------------------------
- pspini: atom type   1  psp file is 26fe.16.hgh
- pspatm: opening atomic psp file    26fe.16.hgh
- Hartwigsen-Goedecker-Hutter psp for Fe,  from PRB58, 3641 (1998)
- 26.00000  16.00000     10605                znucl, zion, pspdat
    3    1    2    0      2001   0.00000      pspcod,pspxc,lmax,lloc,mmax,r2well
 rloc=   0.3600000
 cc1 =   5.3925070; cc2 =  -0.0300660; cc3 =   0.0000000; cc4 =   0.0000000
 rrs =   0.2692680; h11s=  10.1937230; h22s=  -6.8349820; h33s=   0.0000000
 rrp =   0.2476860; h11p=   0.1456130; h22p=  -5.2349540; h33p=   0.0000000
                    k11p=   0.2014500; k22p=  -0.0758290; k33p=   0.0000000
 rrd =   0.2230210; h11d= -12.0269410; h22d=   0.0000000; h33d=   0.0000000
                    k11d=   0.0103220; k22d=   0.0000000; k33d=   0.0000000
-  Local part computed in reciprocal space.

 pspatm : COMMENT -
  the projectors are not normalized,
  so that the KB energies are not consistent with 
  definition in PRB44, 8503 (1991). 
  However, this does not influence the results obtained hereafter.
 pspatm: epsatm=   16.92502289
         --- l  ekb(1:nproj) -->
             0   -0.500862    0.733315
             1   -0.039838    0.006202
             2   -0.004680
 pspatm: atomic psp has been read  and splines computed

   2.70800366E+02                                ecore*ucvol(ha*bohr**3)
--------------------------------------------------------------------------------

P newkpt: treating     10 bands with npw=    1355 for ikpt=   1 by node    0
P newkpt: treating     10 bands with npw=    1351 for ikpt=   2 by node    0
P newkpt: treating     10 bands with npw=    1339 for ikpt=   3 by node    0
P newkpt: treating     10 bands with npw=    1342 for ikpt=   4 by node    0
P newkpt: treating     10 bands with npw=    1361 for ikpt=   5 by node    0
P newkpt: treating     10 bands with npw=    1346 for ikpt=   6 by node    0
P newkpt: treating     10 bands with npw=    1337 for ikpt=   7 by node    0
P newkpt: treating     10 bands with npw=    1360 for ikpt=   8 by node    0
P newkpt: treating     10 bands with npw=    1337 for ikpt=   9 by node    0
P newkpt: treating     10 bands with npw=    1345 for ikpt=  10 by node    0
P newkpt: treating     10 bands with npw=    1348 for ikpt=  11 by node    0
P newkpt: treating     10 bands with npw=    1347 for ikpt=  12 by node    0
P newkpt: treating     10 bands with npw=    1347 for ikpt=  13 by node    0
P newkpt: treating     10 bands with npw=    1345 for ikpt=  14 by node    0
P newkpt: treating     10 bands with npw=    1337 for ikpt=  15 by node    0
P newkpt: treating     10 bands with npw=    1331 for ikpt=  16 by node    0
P newkpt: treating     10 bands with npw=    1346 for ikpt=  17 by node    0
P newkpt: treating     10 bands with npw=    1365 for ikpt=  18 by node    0
P newkpt: treating     10 bands with npw=    1346 for ikpt=  19 by node    0
P newkpt: treating     10 bands with npw=    1336 for ikpt=  20 by node    0
P newkpt: treating     10 bands with npw=    1337 for ikpt=  21 by node    0
P newkpt: treating     10 bands with npw=    1343 for ikpt=  22 by node    0
P newkpt: treating     10 bands with npw=    1349 for ikpt=  23 by node    0
P newkpt: treating     10 bands with npw=    1345 for ikpt=  24 by node    0
P newkpt: treating     10 bands with npw=    1334 for ikpt=  25 by node    0
P newkpt: treating     10 bands with npw=    1320 for ikpt=  26 by node    0
P newkpt: treating     10 bands with npw=    1355 for ikpt=   1 by node    0
P newkpt: treating     10 bands with npw=    1351 for ikpt=   2 by node    0
P newkpt: treating     10 bands with npw=    1339 for ikpt=   3 by node    0
P newkpt: treating     10 bands with npw=    1342 for ikpt=   4 by node    0
P newkpt: treating     10 bands with npw=    1361 for ikpt=   5 by node    0
P newkpt: treating     10 bands with npw=    1346 for ikpt=   6 by node    0
P newkpt: treating     10 bands with npw=    1337 for ikpt=   7 by node    0
P newkpt: treating     10 bands with npw=    1360 for ikpt=   8 by node    0
P newkpt: treating     10 bands with npw=    1337 for ikpt=   9 by node    0
P newkpt: treating     10 bands with npw=    1345 for ikpt=  10 by node    0
P newkpt: treating     10 bands with npw=    1348 for ikpt=  11 by node    0
P newkpt: treating     10 bands with npw=    1347 for ikpt=  12 by node    0
P newkpt: treating     10 bands with npw=    1347 for ikpt=  13 by node    0
P newkpt: treating     10 bands with npw=    1345 for ikpt=  14 by node    0
P newkpt: treating     10 bands with npw=    1337 for ikpt=  15 by node    0
P newkpt: treating     10 bands with npw=    1331 for ikpt=  16 by node    0
P newkpt: treating     10 bands with npw=    1346 for ikpt=  17 by node    0
P newkpt: treating     10 bands with npw=    1365 for ikpt=  18 by node    0
P newkpt: treating     10 bands with npw=    1346 for ikpt=  19 by node    0
P newkpt: treating     10 bands with npw=    1336 for ikpt=  20 by node    0
P newkpt: treating     10 bands with npw=    1337 for ikpt=  21 by node    0
P newkpt: treating     10 bands with npw=    1343 for ikpt=  22 by node    0
P newkpt: treating     10 bands with npw=    1349 for ikpt=  23 by node    0
P newkpt: treating     10 bands with npw=    1345 for ikpt=  24 by node    0
P newkpt: treating     10 bands with npw=    1334 for ikpt=  25 by node    0
P newkpt: treating     10 bands with npw=    1320 for ikpt=  26 by node    0

_setup2: Arith. and geom. avg. npw (full set) are    1343.973    1343.953

================================================================================

     iter   Etot(hartree)     deltaE(h) residm    vres2    magn
 ETOT  1  -111.06611864568    -1.11E+02 3.48E+00 8.56E+04 0.953
 ETOT  2  -112.43893852586    -1.37E+00 2.72E-01 7.68E+04 0.108
 ETOT  3  -122.44494185751    -1.00E+01 7.31E-01 5.55E+02 0.948
 ETOT  4  -122.63330125986    -1.88E-01 1.96E-01 4.45E+02 1.354
 ETOT  5  -122.68103675652    -4.77E-02 4.85E-02 1.77E+01 1.792
 ETOT  6  -122.68531307129    -4.28E-03 1.55E-02 4.44E+00 1.901
 ETOT  7  -122.68499052654     3.23E-04 7.59E-03 6.97E+00 2.022
 ETOT  8  -122.68598209517    -9.92E-04 7.78E-03 7.16E-01 2.013
 ETOT  9  -122.68600992785    -2.78E-05 2.03E-03 6.14E-01 2.050
 ETOT 10  -122.68609727258    -8.73E-05 2.79E-03 2.74E-02 2.083
 ETOT 11  -122.68610205641    -4.78E-06 5.75E-04 8.26E-05 2.076
 ETOT 12  -122.68610207625    -1.98E-08 6.89E-04 1.60E-05 2.077
 ETOT 13  -122.68610208087    -4.62E-09 1.37E-04 2.14E-06 2.077
 ETOT 14  -122.68610208155    -6.72E-10 1.56E-04 3.56E-08 2.077

 At SCF step   14, etot is converged : 
  for the second time, diff in etot=  6.723E-10 < toldfe=  1.000E-08

 Cartesian components of stress tensor (hartree/bohr^3)
  sigma(1 1)=  2.67062746E-02  sigma(3 2)=  0.00000000E+00
  sigma(2 2)=  2.67062746E-02  sigma(3 1)=  0.00000000E+00
  sigma(3 3)=  2.67062746E-02  sigma(2 1)=  0.00000000E+00

================================================================================

 ----iterations are completed or convergence reached----

 Mean square residual over all n,k,spin=   3.3530E-07; max=  1.5610E-04
   0.0625  0.0625  0.0625    1  4.20068E-13 kpt; spin; max resid(k); each band:
  1.08E-13 8.35E-14 6.72E-14 6.72E-14 1.14E-13 2.93E-13 2.93E-13 2.21E-14
  4.20E-13 4.20E-13
   0.1875  0.0625  0.0625    1  2.75522E-12 kpt; spin; max resid(k); each band:
  9.95E-14 1.11E-13 7.43E-14 6.85E-14 2.47E-13 4.31E-13 2.18E-12 2.76E-12
  5.97E-13 3.72E-13
   0.3125  0.0625  0.0625    1  4.67392E-12 kpt; spin; max resid(k); each band:
  7.83E-14 1.53E-13 7.62E-14 6.94E-14 1.46E-12 1.87E-13 1.85E-12 4.67E-12
  3.71E-13 7.98E-13
   0.4375  0.0625  0.0625    1  2.27594E-09 kpt; spin; max resid(k); each band:
  4.98E-14 1.95E-13 7.26E-14 6.98E-14 2.43E-12 1.50E-13 4.53E-13 2.77E-11
  2.12E-11 2.28E-09
  -0.0625  0.0625  0.0625    1  1.08801E-13 kpt; spin; max resid(k); each band:
  1.09E-13 7.00E-14 6.74E-14 6.74E-14 1.05E-13 1.29E-14 1.15E-14 1.15E-14
  9.68E-14 6.12E-14
   0.1875  0.1875  0.0625    1  3.15253E-12 kpt; spin; max resid(k); each band:
  8.45E-14 1.32E-13 8.44E-14 7.27E-14 5.76E-13 2.38E-12 4.12E-13 3.15E-12
  1.24E-12 4.46E-13
   0.3125  0.1875  0.0625    1  5.25322E-10 kpt; spin; max resid(k); each band:
  5.83E-14 1.67E-13 9.16E-14 7.36E-14 1.71E-12 9.65E-13 1.53E-12 9.38E-12
  4.48E-12 5.25E-10
  -0.1875  0.1875  0.0625    1  1.73457E-12 kpt; spin; max resid(k); each band:
  1.05E-13 9.17E-14 7.20E-14 6.86E-14 1.77E-13 7.21E-15 1.66E-12 1.36E-14
  1.73E-12 2.54E-13
   0.3125  0.3125  0.0625    1  2.01895E-08 kpt; spin; max resid(k); each band:
  3.65E-14 1.34E-13 1.59E-13 7.20E-14 1.72E-13 2.21E-12 2.18E-12 8.78E-12
  9.74E-12 2.02E-08
  -0.3125  0.3125  0.0625    1  4.13205E-12 kpt; spin; max resid(k); each band:
  9.13E-14 1.32E-13 7.44E-14 6.93E-14 7.75E-13 4.57E-15 3.19E-12 4.13E-12
  4.45E-13 6.29E-14
  -0.1875  0.3125  0.0625    1  3.64216E-12 kpt; spin; max resid(k); each band:
  9.52E-14 1.16E-13 8.08E-14 7.18E-14 5.13E-13 3.41E-12 7.55E-14 3.64E-12
  2.55E-12 2.63E-12
  -0.4375  0.4375  0.0625    1  3.40316E-11 kpt; spin; max resid(k); each band:
  6.28E-14 1.85E-13 7.07E-14 7.04E-14 2.41E-12 6.53E-14 2.76E-12 3.37E-12
  2.50E-12 3.40E-11
  -0.3125  0.4375  0.0625    1  4.63995E-12 kpt; spin; max resid(k); each band:
  7.57E-14 1.54E-13 8.54E-14 7.29E-14 1.83E-12 3.02E-12 2.66E-12 4.64E-12
  3.99E-12 2.41E-12
  -0.4375 -0.4375  0.0625    1  3.63509E-11 kpt; spin; max resid(k); each band:
  4.71E-14 2.02E-13 8.31E-14 7.37E-14 2.86E-12 7.93E-13 2.58E-12 3.98E-12
  2.44E-11 3.64E-11
  -0.3125 -0.4375  0.0625    1  8.17873E-12 kpt; spin; max resid(k); each band:
  5.53E-14 1.78E-13 1.06E-13 7.07E-14 2.09E-12 3.44E-12 2.91E-12 3.20E-12
  5.11E-12 8.18E-12
   0.1875  0.1875  0.1875    1  2.25587E-12 kpt; spin; max resid(k); each band:
  6.58E-14 1.42E-13 8.86E-14 8.86E-14 4.07E-13 1.07E-12 1.07E-12 2.20E-12
  2.26E-12 4.15E-13
   0.3125  0.1875  0.1875    1  1.70135E-05 kpt; spin; max resid(k); each band:
  3.36E-14 1.69E-13 9.94E-14 9.01E-14 1.40E-12 2.22E-13 4.17E-13 6.80E-12
  9.58E-13 1.70E-05
  -0.1875  0.1875  0.1875    1  4.89630E-13 kpt; spin; max resid(k); each band:
  9.77E-14 1.03E-13 7.95E-14 7.95E-14 4.90E-13 1.68E-13 1.49E-14 1.49E-14
  1.03E-14 4.34E-13
  -0.3125  0.3125  0.1875    1  2.71660E-12 kpt; spin; max resid(k); each band:
  8.41E-14 1.34E-13 8.41E-14 8.58E-14 1.52E-12 1.95E-12 1.53E-14 2.72E-12
  2.48E-14 1.81E-12
  -0.4375  0.4375  0.1875    1  1.15343E-11 kpt; spin; max resid(k); each band:
  6.03E-14 1.88E-13 7.97E-14 8.91E-14 2.86E-12 2.15E-12 3.83E-14 3.27E-12
  1.15E-11 2.71E-12
  -0.3125  0.4375  0.1875    1  2.54907E-12 kpt; spin; max resid(k); each band:
  6.90E-14 1.65E-13 9.44E-14 8.80E-14 2.43E-12 1.64E-12 1.19E-12 1.94E-12
  2.09E-12 2.55E-12
  -0.4375 -0.4375  0.1875    1  7.39075E-11 kpt; spin; max resid(k); each band:
  3.73E-14 2.29E-13 9.47E-14 8.27E-14 2.25E-12 1.91E-12 7.21E-13 2.50E-12
  1.35E-11 7.39E-11
  -0.3125  0.3125  0.3125    1  2.22929E-12 kpt; spin; max resid(k); each band:
  7.45E-14 1.65E-13 8.93E-14 8.93E-14 2.09E-12 2.03E-13 5.43E-14 5.39E-14
  4.64E-14 2.23E-12
  -0.4375  0.4375  0.3125    1  2.07169E-12 kpt; spin; max resid(k); each band:
  5.43E-14 1.96E-13 8.35E-14 1.10E-13 1.53E-12 7.08E-13 2.11E-14 1.81E-12
  2.61E-13 2.07E-12
  -0.4375 -0.4375  0.3125    1  1.21238E-10 kpt; spin; max resid(k); each band:
  2.56E-14 9.96E-14 2.69E-13 8.27E-14 1.01E-12 7.00E-13 1.05E-13 8.40E-12
  4.08E-12 1.21E-10
  -0.4375  0.4375  0.4375    1  1.02059E-12 kpt; spin; max resid(k); each band:
  3.72E-14 2.94E-13 6.91E-14 6.91E-14 2.37E-13 6.97E-13 5.38E-14 4.29E-14
  8.14E-14 1.02E-12
   0.0625  0.0625  0.0625    2  7.01372E-12 kpt; spin; max resid(k); each band:
  5.69E-12 1.46E-12 2.97E-13 2.97E-13 7.01E-12 1.23E-12 1.23E-12 1.29E-12
  1.44E-12 1.44E-12
   0.1875  0.0625  0.0625    2  1.00326E-11 kpt; spin; max resid(k); each band:
  4.70E-12 3.27E-12 6.08E-13 3.61E-13 1.00E-11 1.44E-12 6.56E-12 6.36E-12
  6.81E-12 1.72E-12
   0.3125  0.0625  0.0625    2  3.65837E-11 kpt; spin; max resid(k); each band:
  3.13E-12 6.66E-12 4.64E-13 4.22E-13 1.67E-11 1.18E-12 2.03E-11 3.89E-12
  4.06E-12 3.66E-11
   0.4375  0.0625  0.0625    2  3.70458E-08 kpt; spin; max resid(k); each band:
  1.74E-12 1.01E-11 6.54E-13 4.46E-13 8.99E-12 2.92E-12 2.97E-11 6.95E-12
  3.60E-11 3.70E-08
  -0.0625  0.0625  0.0625    2  6.44139E-12 kpt; spin; max resid(k); each band:
  6.03E-12 5.98E-13 2.72E-13 2.72E-13 6.44E-12 1.06E-13 3.54E-13 3.54E-13
  6.72E-13 3.12E-13
   0.1875  0.1875  0.0625    2  1.89709E-11 kpt; spin; max resid(k); each band:
  3.48E-12 5.12E-12 9.23E-13 6.44E-13 1.78E-11 6.88E-12 6.65E-12 2.83E-12
  1.61E-12 1.90E-11
   0.3125  0.1875  0.0625    2  2.51025E-09 kpt; spin; max resid(k); each band:
  1.86E-12 7.97E-12 1.56E-12 4.73E-13 2.07E-11 6.55E-12 3.34E-11 3.32E-12
  1.24E-11 2.51E-09
  -0.1875  0.1875  0.0625    2  7.55683E-12 kpt; spin; max resid(k); each band:
  5.36E-12 2.12E-12 4.21E-13 3.55E-13 7.56E-12 4.87E-13 4.29E-12 1.07E-12
  2.55E-12 1.01E-12
   0.3125  0.3125  0.0625    2  9.24650E-07 kpt; spin; max resid(k); each band:
  6.45E-13 4.83E-12 7.26E-12 4.90E-13 5.62E-12 3.08E-11 4.88E-11 4.54E-12
  2.56E-10 9.25E-07
  -0.3125  0.3125  0.0625    2  1.25036E-11 kpt; spin; max resid(k); each band:
  4.08E-12 4.77E-12 4.98E-13 3.62E-13 1.21E-11 3.97E-13 1.25E-11 5.33E-12
  4.32E-12 2.68E-12
  -0.1875  0.3125  0.0625    2  1.04211E-11 kpt; spin; max resid(k); each band:
  4.43E-12 3.52E-12 5.36E-13 4.88E-13 1.04E-11 6.14E-12 3.76E-12 4.14E-12
  6.55E-12 2.17E-12
  -0.4375  0.4375  0.0625    2  1.29516E-10 kpt; spin; max resid(k); each band:
  2.36E-12 8.93E-12 3.42E-13 3.75E-13 1.23E-11 5.24E-13 2.05E-11 2.98E-11
  7.80E-11 1.30E-10
  -0.3125  0.4375  0.0625    2  3.98588E-11 kpt; spin; max resid(k); each band:
  3.02E-12 6.34E-12 8.61E-13 5.13E-13 1.86E-11 1.32E-11 1.85E-11 1.18E-11
  7.65E-12 3.99E-11
  -0.4375 -0.4375  0.0625    2  6.31603E-10 kpt; spin; max resid(k); each band:
  1.49E-12 9.85E-12 8.64E-13 5.21E-13 1.05E-11 5.33E-12 2.55E-11 1.48E-11
  2.93E-10 6.32E-10
  -0.3125 -0.4375  0.0625    2  2.12269E-10 kpt; spin; max resid(k); each band:
  1.75E-12 7.71E-12 2.37E-12 3.38E-13 2.70E-11 8.25E-12 2.25E-11 2.25E-11
  1.21E-11 2.12E-10
   0.1875  0.1875  0.1875    2  3.52897E-11 kpt; spin; max resid(k); each band:
  2.19E-12 6.68E-12 1.34E-12 1.34E-12 3.37E-11 6.52E-12 6.52E-12 1.05E-12
  9.91E-13 3.53E-11
   0.3125  0.1875  0.1875    2  1.56102E-04 kpt; spin; max resid(k); each band:
  4.83E-13 8.86E-12 2.23E-12 1.50E-12 7.57E-12 6.30E-12 4.46E-11 1.32E-11
  3.20E-11 1.56E-04
  -0.1875  0.1875  0.1875    2  8.28560E-12 kpt; spin; max resid(k); each band:
  4.78E-12 3.01E-12 6.55E-13 6.55E-13 8.29E-12 2.30E-12 2.30E-12 5.35E-13
  8.14E-14 1.42E-12
  -0.3125  0.3125  0.1875    2  1.27716E-11 kpt; spin; max resid(k); each band:
  3.75E-12 4.50E-12 5.25E-13 1.11E-12 1.28E-11 4.89E-12 3.21E-12 7.89E-12
  5.08E-12 7.51E-12
  -0.4375  0.4375  0.1875    2  1.57384E-10 kpt; spin; max resid(k); each band:
  2.18E-12 7.92E-12 7.37E-13 9.02E-13 1.70E-11 1.72E-11 3.80E-12 2.94E-11
  4.88E-11 1.57E-10
  -0.3125  0.4375  0.1875    2  2.94006E-11 kpt; spin; max resid(k); each band:
  2.72E-12 5.90E-12 1.23E-12 1.05E-12 1.87E-11 4.10E-12 1.54E-11 1.22E-11
  1.42E-11 2.94E-11
  -0.4375 -0.4375  0.1875    2  2.62273E-09 kpt; spin; max resid(k); each band:
  9.19E-13 9.24E-12 1.57E-12 4.98E-13 7.82E-12 1.90E-11 1.99E-11 9.60E-11
  1.81E-11 2.62E-09
  -0.3125  0.3125  0.3125    2  1.46865E-11 kpt; spin; max resid(k); each band:
  3.12E-12 5.60E-12 7.97E-13 7.97E-13 1.45E-11 4.63E-13 1.07E-11 1.07E-11
  4.26E-13 1.47E-11
  -0.4375  0.4375  0.3125    2  2.49917E-11 kpt; spin; max resid(k); each band:
  1.91E-12 6.32E-12 7.07E-13 1.74E-12 1.37E-11 2.68E-12 1.90E-11 2.37E-11
  1.52E-11 2.50E-11
  -0.4375 -0.4375  0.3125    2  2.44490E-07 kpt; spin; max resid(k); each band:
  3.76E-13 1.90E-12 7.99E-12 6.84E-13 8.95E-12 4.21E-12 4.26E-12 5.01E-11
  1.62E-11 2.44E-07
  -0.4375  0.4375  0.4375    2  1.38927E-11 kpt; spin; max resid(k); each band:
  1.10E-12 8.01E-12 7.48E-13 7.48E-13 5.44E-12 3.95E-13 2.84E-12 2.55E-12
  1.01E-12 1.39E-11
 reduced coordinates (array xred) for    1 atoms
       0.000000000000      0.000000000000      0.000000000000
 rms dE/dt=  0.0000E+00; max dE/dt=  0.0000E+00; dE/dt below (all hartree)
    1       0.000000000000      0.000000000000      0.000000000000

 cartesian coordinates (angstrom) at end:
    1      0.00000000000000     0.00000000000000     0.00000000000000

 cartesian forces (hartree/bohr) at end:
    1     -0.00000000000000    -0.00000000000000    -0.00000000000000
 frms,max,avg= 0.0000000E+00 0.0000000E+00   0.000E+00  0.000E+00  0.000E+00 h/b

 cartesian forces (eV/Angstrom) at end:
    1     -0.00000000000000    -0.00000000000000    -0.00000000000000
 frms,max,avg= 0.0000000E+00 0.0000000E+00   0.000E+00  0.000E+00  0.000E+00 e/A
 length scales=  5.420000000000  5.420000000000  5.420000000000 bohr
              =  2.868140470558  2.868140470558  2.868140470558 angstroms
 prteigrs : about to open file Fe_e50_k4_noSO.o_DS1_EIG
 Fermi (or HOMO) energy (eV) =  12.24142   Average Vxc (eV)= -14.01188
 Eigenvalues (   eV  ) for nkpt=  26  k points, SPIN UP:
 kpt#   1, nband= 10, wtk=  0.01563, kpt=  0.0625  0.0625  0.0625 (reduced coord)
 -79.67337 -45.46542 -45.40434 -45.40434   3.72000   9.47235   9.47235  10.31939
  11.03321  11.03321
 kpt#   2, nband= 10, wtk=  0.04688, kpt=  0.1875  0.0625  0.0625 (reduced coord)
 -79.65072 -45.56328 -45.44349 -45.40228   5.31263   9.01153   9.18495  10.93326
  11.26859  11.43063
 kpt#   3, nband= 10, wtk=  0.04688, kpt=  0.3125  0.0625  0.0625 (reduced coord)
 -79.61298 -45.64838 -45.48634 -45.40291   6.85790   8.60354   9.67587  11.17241
  11.45875  12.92460
 kpt#   4, nband= 10, wtk=  0.02344, kpt=  0.4375  0.0625  0.0625 (reduced coord)
 -79.60856 -45.68761 -45.50478 -45.40351   7.07030   8.47259  10.68503  11.30300
  11.45281  13.90320
 kpt#   5, nband= 10, wtk=  0.01172, kpt= -0.0625  0.0625  0.0625 (reduced coord)
 -79.68790 -45.40892 -45.40590 -45.40590   3.12286   9.69555   9.75668   9.75668
  10.83375  11.07264
 kpt#   6, nband= 10, wtk=  0.04688, kpt=  0.1875  0.1875  0.0625 (reduced coord)
 -79.62631 -45.62491 -45.47356 -45.42512   6.96597   8.69876   8.80615  11.05641
  11.42377  13.08013
 kpt#   7, nband= 10, wtk=  0.09375, kpt=  0.3125  0.1875  0.0625 (reduced coord)
 -79.59913 -45.64525 -45.52407 -45.43141   7.76475   8.54432   9.39941  11.24664
  11.56857  15.20233
 kpt#   8, nband= 10, wtk=  0.04688, kpt= -0.1875  0.1875  0.0625 (reduced coord)
 -79.67410 -45.49206 -45.43436 -45.40510   4.28263   9.37114   9.51579  10.38310
  10.61860  11.32481
 kpt#   9, nband= 10, wtk=  0.01563, kpt=  0.3125  0.3125  0.0625 (reduced coord)
 -79.59474 -45.59256 -45.59256 -45.44244   8.14996   8.85553   8.85553  11.48280
  11.48280  18.46616
 kpt#  10, nband= 10, wtk=  0.04688, kpt= -0.3125  0.3125  0.0625 (reduced coord)
 -79.63075 -45.60397 -45.47197 -45.40178   6.06921   8.95980   9.44230  10.93861
  11.49966  11.66453
 kpt#  11, nband= 10, wtk=  0.04688, kpt= -0.1875  0.3125  0.0625 (reduced coord)
 -79.63831 -45.56551 -45.46515 -45.42262   5.77755   9.18012   9.36248  10.47214
  11.35038  11.66963
 kpt#  12, nband= 10, wtk=  0.04688, kpt= -0.4375  0.4375  0.0625 (reduced coord)
 -79.61788 -45.68388 -45.50176 -45.40296   6.94127   8.58307  10.23536  11.11155
  12.18384  12.62745
 kpt#  13, nband= 10, wtk=  0.09375, kpt= -0.3125  0.4375  0.0625 (reduced coord)
 -79.61821 -45.64252 -45.51174 -45.42735   7.21153   8.81639   9.25477  10.82349
  11.75302  13.15028
 kpt#  14, nband= 10, wtk=  0.04688, kpt= -0.4375 -0.4375  0.0625 (reduced coord)
 -79.60731 -45.67598 -45.53085 -45.42663   7.39473   8.79977   9.50468  10.97230
  12.18310  14.79702
 kpt#  15, nband= 10, wtk=  0.04688, kpt= -0.3125 -0.4375  0.0625 (reduced coord)
 -79.59127 -45.63859 -45.57307 -45.43562   8.15970   8.58044   9.03023  11.22692
  11.78731  16.04131
 kpt#  16, nband= 10, wtk=  0.01563, kpt=  0.1875  0.1875  0.1875 (reduced coord)
 -79.59227 -45.62940 -45.47814 -45.47814   8.38657   8.52630   8.52630  11.49682
  11.49682  15.34108
 kpt#  17, nband= 10, wtk=  0.02344, kpt=  0.3125  0.1875  0.1875 (reduced coord)
 -79.60868 -45.60475 -45.53708 -45.48376   8.26981   8.43531   8.96028  11.51126
  11.51851  17.71535
 kpt#  18, nband= 10, wtk=  0.01172, kpt= -0.1875  0.1875  0.1875 (reduced coord)
 -79.66677 -45.50505 -45.46505 -45.46505   5.32961   9.72628   9.75524   9.75524
  10.40569  11.55976
 kpt#  19, nband= 10, wtk=  0.04688, kpt= -0.3125  0.3125  0.1875 (reduced coord)
 -79.61882 -45.59189 -45.50265 -45.46850   6.84744   8.95435   9.69081  10.42733
  11.56623  12.21636
 kpt#  20, nband= 10, wtk=  0.04688, kpt= -0.4375  0.4375  0.1875 (reduced coord)
 -79.58999 -45.65966 -45.53146 -45.46413   7.57615   8.84161   9.47997  10.69095
  12.64930  14.23886
 kpt#  21, nband= 10, wtk=  0.04688, kpt= -0.3125  0.4375  0.1875 (reduced coord)
 -79.58927 -45.62912 -45.55479 -45.48358   7.81298   8.32610   9.82748  10.88036
  12.04717  14.26089
 kpt#  22, nband= 10, wtk=  0.04688, kpt= -0.4375 -0.4375  0.1875 (reduced coord)
 -79.59105 -45.64786 -45.58399 -45.48526   7.87670   8.25125   9.58319  11.17763
  12.35487  16.98792
 kpt#  23, nband= 10, wtk=  0.01172, kpt= -0.3125  0.3125  0.3125 (reduced coord)
 -79.60546 -45.58662 -45.54872 -45.54872   7.54411   8.32970  10.67203  10.67203
  11.37830  13.52825
 kpt#  24, nband= 10, wtk=  0.04688, kpt= -0.4375  0.4375  0.3125 (reduced coord)
 -79.58803 -45.63399 -45.57683 -45.55396   7.59169   7.77399  10.80679  11.15818
  12.45918  16.27759
 kpt#  25, nband= 10, wtk=  0.01563, kpt= -0.4375 -0.4375  0.3125 (reduced coord)
 -79.56507 -45.61766 -45.61766 -45.55987   7.52491   7.52491  10.95011  12.32457
  12.32457  19.56992
 kpt#  26, nband= 10, wtk=  0.01172, kpt= -0.4375  0.4375  0.4375 (reduced coord)
 -79.53820 -45.61082 -45.60481 -45.60481   7.28163   7.33401  12.31316  12.31316
  12.59647  18.76697
 Eigenvalues (   eV  ) for nkpt=  26  k points, SPIN DOWN:
 kpt#   1, nband= 10, wtk=  0.01563, kpt=  0.0625  0.0625  0.0625 (reduced coord)
 -76.95041 -42.83541 -42.76712 -42.76712   4.17012  11.29479  11.29479  12.23172
  13.53640  13.53640
 kpt#   2, nband= 10, wtk=  0.04688, kpt=  0.1875  0.0625  0.0625 (reduced coord)
 -76.92589 -42.94430 -42.81025 -42.76537   5.81673  10.76275  10.91181  13.30101
  13.45666  13.80028
 kpt#   3, nband= 10, wtk=  0.04688, kpt=  0.3125  0.0625  0.0625 (reduced coord)
 -76.88656 -43.03969 -42.85789 -42.76626   7.74778  10.29386  10.92021  13.55638
  14.02925  14.89988
 kpt#   4, nband= 10, wtk=  0.02344, kpt=  0.4375  0.0625  0.0625 (reduced coord)
 -76.88118 -43.08282 -42.87837 -42.76690   8.35042  10.13704  11.50732  13.69765
  14.04681  15.67959
 kpt#   5, nband= 10, wtk=  0.01172, kpt= -0.0625  0.0625  0.0625 (reduced coord)
 -76.96597 -42.77280 -42.76852 -42.76852   3.56674  11.57651  11.60979  11.60979
  13.33049  13.62370
 kpt#   6, nband= 10, wtk=  0.04688, kpt=  0.1875  0.1875  0.0625 (reduced coord)
 -76.90001 -43.01307 -42.84410 -42.79051   7.63733  10.34379  10.41670  13.48240
  13.96815  15.02067
 kpt#   7, nband= 10, wtk=  0.09375, kpt=  0.3125  0.1875  0.0625 (reduced coord)
 -76.87190 -43.03627 -42.90027 -42.79773   8.99810  10.12686  10.60692  13.67979
  14.09849  16.85897
 kpt#   8, nband= 10, wtk=  0.04688, kpt= -0.1875  0.1875  0.0625 (reduced coord)
 -76.95017 -42.86480 -42.79990 -42.76812   4.74568  11.18045  11.33366  12.31598
  13.00630  13.88032
 kpt#   9, nband= 10, wtk=  0.01563, kpt=  0.3125  0.3125  0.0625 (reduced coord)
 -76.86701 -42.97706 -42.97706 -42.80999   9.63085  10.21213  10.21213  13.95527
  13.95527  19.78577
 kpt#  10, nband= 10, wtk=  0.04688, kpt= -0.3125  0.3125  0.0625 (reduced coord)
 -76.90511 -42.98995 -42.84175 -42.76488   6.70163  10.70196  11.03317  13.21251
  13.70336  14.03170
 kpt#  11, nband= 10, wtk=  0.04688, kpt= -0.1875  0.3125  0.0625 (reduced coord)
 -76.91296 -42.94709 -42.83442 -42.78761   6.31761  10.97120  11.09438  12.72579
  13.36912  14.16095
 kpt#  12, nband= 10, wtk=  0.04688, kpt= -0.4375  0.4375  0.0625 (reduced coord)
 -76.89071 -43.07890 -42.87439 -42.76598   8.12342  10.29081  11.37523  13.42378
  14.27885  14.78651
 kpt#  13, nband= 10, wtk=  0.09375, kpt= -0.3125  0.4375  0.0625 (reduced coord)
 -76.89117 -43.03282 -42.88591 -42.79269   8.15538  10.48649  10.81044  13.04033
  14.09384  15.10465
 kpt#  14, nband= 10, wtk=  0.04688, kpt= -0.4375 -0.4375  0.0625 (reduced coord)
 -76.87955 -43.06970 -42.90729 -42.79201   8.75663  10.48238  10.83832  13.23352
  14.39040  16.40247
 kpt#  15, nband= 10, wtk=  0.04688, kpt= -0.3125 -0.4375  0.0625 (reduced coord)
 -76.86345 -43.02828 -42.95489 -42.80195   9.49658  10.14489  10.57789  13.44172
  14.04339  17.59917
 kpt#  16, nband= 10, wtk=  0.01563, kpt=  0.1875  0.1875  0.1875 (reduced coord)
 -76.86535 -43.01831 -42.85011 -42.85011   9.28862  10.05969  10.05969  14.04518
  14.04518  17.05569
 kpt#  17, nband= 10, wtk=  0.02344, kpt=  0.3125  0.1875  0.1875 (reduced coord)
 -76.88068 -42.99019 -42.91500 -42.85612   9.63830   9.93042  10.23349  14.06338
  14.11905  19.02995
 kpt#  18, nband= 10, wtk=  0.01172, kpt= -0.1875  0.1875  0.1875 (reduced coord)
 -76.94148 -42.87983 -42.83363 -42.83363   5.83404  11.56861  11.56861  11.95719
  12.35143  14.10458
 kpt#  19, nband= 10, wtk=  0.04688, kpt= -0.3125  0.3125  0.1875 (reduced coord)
 -76.89211 -42.97633 -42.87581 -42.83844   7.58278  10.84768  11.47199  12.37883
  13.58918  14.49912
 kpt#  20, nband= 10, wtk=  0.04688, kpt= -0.4375  0.4375  0.1875 (reduced coord)
 -76.86214 -43.05203 -42.90771 -42.83375   8.89939  10.39953  11.23210  12.74718
  14.79318  15.85538
 kpt#  21, nband= 10, wtk=  0.04688, kpt= -0.3125  0.4375  0.1875 (reduced coord)
 -76.86114 -43.01772 -42.93373 -42.85523   8.97133  10.12707  11.58526  12.84023
  14.15686  15.97080
 kpt#  22, nband= 10, wtk=  0.04688, kpt= -0.4375 -0.4375  0.1875 (reduced coord)
 -76.86242 -43.03781 -42.96626 -42.85679   9.49432   9.84648  11.28044  13.19101
  14.45866  18.29141
 kpt#  23, nband= 10, wtk=  0.01172, kpt= -0.3125  0.3125  0.3125 (reduced coord)
 -76.87669 -42.97049 -42.92644 -42.92644   8.67086  10.24135  12.50629  12.50629
  13.43185  15.27741
 kpt#  24, nband= 10, wtk=  0.04688, kpt= -0.4375  0.4375  0.3125 (reduced coord)
 -76.85865 -43.02220 -42.95804 -42.93245   9.16280   9.54026  12.68275  13.03769
  14.58733  17.46863
 kpt#  25, nband= 10, wtk=  0.01563, kpt= -0.4375 -0.4375  0.3125 (reduced coord)
 -76.83553 -43.00398 -43.00398 -42.93915   9.23262   9.23262  12.79092  14.38520
  14.38520  20.51257
 kpt#  26, nband= 10, wtk=  0.01172, kpt= -0.4375  0.4375  0.4375 (reduced coord)
 -76.80861 -42.99676 -42.98964 -42.98964   9.01326   9.02694  14.35711  14.35711
  14.72479  19.52966
 Total charge density [el/Bohr^3]
,     Maximum=    3.6479E+00  at reduced coord.    0.8667    0.9333    0.9333
,Next maximum=    3.6479E+00  at reduced coord.    0.9333    0.8667    0.9333
,     Minimum=    1.7800E-02  at reduced coord.    0.0000    0.0000    0.0000
,Next minimum=    3.6324E-02  at reduced coord.    0.6000    0.5000    0.1000
,  Integrated=    1.6000E+01
 Spin up density      [el/Bohr^3]
,     Maximum=    2.1972E+00  at reduced coord.    0.0000    0.9000    0.9000
,Next maximum=    2.1972E+00  at reduced coord.    0.9000    0.0000    0.9000
,     Minimum=    8.9193E-03  at reduced coord.    0.0000    0.0000    0.0000
,Next minimum=    1.7275E-02  at reduced coord.    0.6333    0.5000    0.1333
,  Integrated=    9.0387E+00
 Spin down density    [el/Bohr^3]
,     Maximum=    1.6130E+00  at reduced coord.    0.8667    0.9667    0.9667
,Next maximum=    1.6130E+00  at reduced coord.    0.9667    0.8667    0.9667
,     Minimum=    8.8811E-03  at reduced coord.    0.0000    0.0000    0.0000
,Next minimum=    1.8903E-02  at reduced coord.    0.6000    0.5000    0.1000
,  Integrated=    6.9613E+00
 Magnetization (spin up - spin down) [el/Bohr^3]
,     Maximum=    7.7057E-01  at reduced coord.    0.0000    0.9000    0.9000
,Next maximum=    7.7057E-01  at reduced coord.    0.9000    0.0000    0.9000
,     Minimum=   -2.2958E-03  at reduced coord.    0.7333    0.5000    0.2333
,Next minimum=   -2.2958E-03  at reduced coord.    0.5000    0.7333    0.2333
,  Integrated=    2.0773E+00
 Relative magnetization (=zeta, between -1 and 1)
,     Maximum=    2.9594E-01  at reduced coord.    0.0000    0.7333    0.7333
,Next maximum=    2.9594E-01  at reduced coord.    0.7333    0.0000    0.7333
,     Minimum=   -6.0257E-02  at reduced coord.    0.7333    0.4667    0.2333
,Next minimum=   -6.0257E-02  at reduced coord.    0.7667    0.5000    0.2333

--------------------------------------------------------------------------------
 Components of total free energy (in Hartree) :

    Kinetic energy  =  6.31959220478014E+01
    Hartree energy  =  3.15136032643365E+01
    XC energy       = -1.28000777504479E+01
    Ewald energy    = -8.59449965935601E+01
    PspCore energy  =  3.40158543545826E+00
    Loc. psp. energy= -1.03952227066174E+02
    NL   psp  energy= -1.80995308015860E+01
    >>>>> Internal E= -1.22685721464172E+02

    -kT*entropy     = -3.80617374621844E-04
    >>>>>>>>> Etotal= -1.22686102081547E+02

 Other information on the energy :
    Total energy(eV)= -3.33845861802812E+03 ; Band energy (Ha)=  -1.2666103939E+01
--------------------------------------------------------------------------------

 Cartesian components of stress tensor (hartree/bohr^3)
  sigma(1 1)=  2.67062746E-02  sigma(3 2)=  0.00000000E+00
  sigma(2 2)=  2.67062746E-02  sigma(3 1)=  0.00000000E+00
  sigma(3 3)=  2.67062746E-02  sigma(2 1)=  0.00000000E+00

-Cartesian components of stress tensor (GPa)         [Pressure= -7.8573E+02 GPa]
- sigma(1 1)=  7.85725594E+02  sigma(3 2)=  0.00000000E+00
- sigma(2 2)=  7.85725594E+02  sigma(3 1)=  0.00000000E+00
- sigma(3 3)=  7.85725594E+02  sigma(2 1)=  0.00000000E+00

================================================================================
== DATASET  2 ==================================================================
-   nproc =    1

 mkfilename : getden/=0, take file _DEN from output of DATASET   1.

 Exchange-correlation functional for the present dataset will be:
  LDA: new Teter (4/93) with spin-polarized option - ixc=1
 Citation for XC functional:
  S. Goedecker, M. Teter, J. Huetter, PRB 54, 1703 (1996)

 Real(R)+Recip(G) space primitive vectors, cartesian coordinates (Bohr,Bohr^-1):
 R(1)= -2.7100000  2.7100000  2.7100000  G(1)=  0.0000000  0.1845018  0.1845018
 R(2)=  2.7100000 -2.7100000  2.7100000  G(2)=  0.1845018  0.0000000  0.1845018
 R(3)=  2.7100000  2.7100000 -2.7100000  G(3)=  0.1845018  0.1845018  0.0000000
 Unit cell volume ucvol=  7.9610044E+01 bohr^3
 Angles (23,13,12)=  1.09471221E+02  1.09471221E+02  1.09471221E+02 degrees

 getcut: wavevector=  0.0000  0.0000  0.0000  ngfft=  30  30  30
         ecut(hartree)=     50.000   => boxcut(ratio)=   2.00790
--------------------------------------------------------------------------------

P newkpt: treating     15 bands with npw=    1358 for ikpt=   1 by node    0
P newkpt: treating     15 bands with npw=    1334 for ikpt=   2 by node    0
P newkpt: treating     15 bands with npw=    1353 for ikpt=   3 by node    0
P newkpt: treating     15 bands with npw=    1350 for ikpt=   4 by node    0
P newkpt: treating     15 bands with npw=    1340 for ikpt=   5 by node    0
P newkpt: treating     15 bands with npw=    1332 for ikpt=   6 by node    0
P newkpt: treating     15 bands with npw=    1358 for ikpt=   1 by node    0
P newkpt: treating     15 bands with npw=    1334 for ikpt=   2 by node    0
P newkpt: treating     15 bands with npw=    1353 for ikpt=   3 by node    0
P newkpt: treating     15 bands with npw=    1350 for ikpt=   4 by node    0
P newkpt: treating     15 bands with npw=    1340 for ikpt=   5 by node    0
P newkpt: treating     15 bands with npw=    1332 for ikpt=   6 by node    0


================================================================================
 prteigrs : about to open file Fe_e50_k4_noSO.o_DS2_EIG

 SPIN UP channel
 Non-SCF case, kpt    1 (  0.12500  0.12500  0.12500), residuals and eigenvalues=
  3.90E-11  9.27E-11  2.93E-11  4.75E-11  1.40E-11  3.56E-11  7.13E-11  9.51E-11
  1.26E-09  3.49E-10  1.63E-11  5.87E-11  7.34E-11  6.95E-09  5.31E-03
 -2.9273E+00 -1.6756E+00 -1.6697E+00 -1.6697E+00  2.2232E-01  3.2245E-01
  3.2245E-01  4.0847E-01  4.0847E-01  4.4722E-01  1.0034E+00  1.0034E+00
  1.0437E+00  1.4312E+00  1.6224E+00
  prteigrs : nnsclo,ikpt=  300    1 max resid (incl. the buffer)=  5.30775E-03
 Non-SCF case, kpt    2 (  0.37500  0.12500  0.12500), residuals and eigenvalues=
  3.62E-11  2.32E-11  1.65E-11  5.61E-11  4.88E-11  4.64E-11  3.99E-11  1.81E-11
  1.55E-11  3.23E-11  7.82E-11  3.21E-11  1.35E-11  1.08E-07  1.45E-03
 -2.9250E+00 -1.6777E+00 -1.6728E+00 -1.6697E+00  2.8100E-01  3.1180E-01
  3.5882E-01  4.2009E-01  4.2439E-01  5.7907E-01  6.9375E-01  9.2596E-01
  9.2890E-01  1.4770E+00  1.6287E+00
  prteigrs : nnsclo,ikpt=  300    2 max resid (incl. the buffer)=  1.44542E-03
 Non-SCF case, kpt    3 ( -0.12500  0.12500  0.12500), residuals and eigenvalues=
  2.57E-11  1.58E-11  5.48E-11  4.42E-11  1.04E-11  3.16E-11  2.27E-10  3.43E-10
  2.96E-10  3.84E-10  1.60E-08  2.89E-08  7.36E-07  2.67E-07  6.88E-08
 -2.9277E+00 -1.6702E+00 -1.6694E+00 -1.6694E+00  1.4742E-01  3.5813E-01
  3.5813E-01  3.6802E-01  3.8494E-01  4.1848E-01  1.1800E+00  1.2392E+00
  1.2392E+00  1.2809E+00  1.4575E+00
  prteigrs : nnsclo,ikpt=  300    3 max resid (incl. the buffer)=  7.36366E-07
 Non-SCF case, kpt    4 ( -0.37500  0.37500  0.12500), residuals and eigenvalues=
  3.97E-11  2.74E-11  3.04E-11  2.15E-11  4.50E-12  2.40E-10  1.34E-11  1.97E-09
  1.10E-09  2.31E-10  3.67E-10  4.09E-09  1.61E-10  7.83E-07  1.83E-05
 -2.9261E+00 -1.6774E+00 -1.6722E+00 -1.6695E+00  2.5665E-01  3.3247E-01
  3.3976E-01  3.9569E-01  4.4693E-01  4.5245E-01  8.0300E-01  1.0562E+00
  1.0805E+00  1.3650E+00  1.4066E+00
  prteigrs : nnsclo,ikpt=  300    4 max resid (incl. the buffer)=  1.82538E-05
 Non-SCF case, kpt    5 ( -0.37500 -0.37500  0.12500), residuals and eigenvalues=
  5.36E-11  3.60E-11  4.28E-11  6.23E-11  7.51E-11  6.17E-11  1.10E-10  5.53E-11
  4.21E-10  5.44E-11  2.35E-10  1.08E-11  7.58E-09  3.22E-10  2.88E-08
 -2.9249E+00 -1.6764E+00 -1.6764E+00 -1.6705E+00  3.0902E-01  3.0902E-01
  3.2697E-01  4.2767E-01  4.2767E-01  6.7905E-01  6.7905E-01  7.4487E-01
  1.2688E+00  1.2814E+00  1.2814E+00
  prteigrs : nnsclo,ikpt=  300    5 max resid (incl. the buffer)=  2.87688E-08
 Non-SCF case, kpt    6 ( -0.37500  0.37500  0.37500), residuals and eigenvalues=
  2.29E-11  1.51E-11  3.07E-11  6.84E-11  1.76E-11  8.76E-11  8.43E-11  5.21E-11
  5.72E-11  6.49E-11  2.88E-11  8.55E-11  3.68E-10  1.11E-11  1.66E-09
 -2.9240E+00 -1.6761E+00 -1.6750E+00 -1.6750E+00  2.7524E-01  2.8423E-01
  4.2164E-01  4.2164E-01  4.4960E-01  5.8475E-01  8.3809E-01  8.3809E-01
  1.0326E+00  1.0624E+00  1.3112E+00
  prteigrs : nnsclo,ikpt=  300    6 max resid (incl. the buffer)=  1.65715E-09

 SPIN DOWN channel
 Non-SCF case, kpt    1 (  0.12500  0.12500  0.12500), residuals and eigenvalues=
  3.70E-11  5.00E-12  3.17E-11  5.27E-11  1.45E-11  2.43E-11  5.43E-11  4.78E-11
  1.31E-09  2.17E-10  6.65E-11  9.33E-11  1.02E-11  8.17E-09  5.71E-03
 -2.8271E+00 -1.5795E+00 -1.5729E+00 -1.5729E+00  2.4177E-01  3.8527E-01
  3.8527E-01  5.0022E-01  5.0022E-01  5.1959E-01  1.0345E+00  1.0345E+00
  1.0755E+00  1.4380E+00  1.6462E+00
  prteigrs : nnsclo,ikpt=  300    1 max resid (incl. the buffer)=  5.71266E-03
 Non-SCF case, kpt    2 (  0.37500  0.12500  0.12500), residuals and eigenvalues=
  3.42E-11  2.36E-11  1.72E-11  6.45E-11  1.95E-11  2.69E-11  5.50E-12  2.48E-11
  2.31E-11  1.31E-11  3.61E-11  2.47E-11  3.26E-11  3.10E-08  1.13E-03
 -2.8248E+00 -1.5818E+00 -1.5763E+00 -1.5729E+00  3.2943E-01  3.7012E-01
  3.9866E-01  5.1051E-01  5.1974E-01  6.3441E-01  7.4413E-01  9.5658E-01
  9.5797E-01  1.4934E+00  1.6551E+00
  prteigrs : nnsclo,ikpt=  300    2 max resid (incl. the buffer)=  1.13081E-03
 Non-SCF case, kpt    3 ( -0.12500  0.12500  0.12500), residuals and eigenvalues=
  1.87E-11  1.41E-11  5.81E-11  2.19E-11  7.26E-12  2.80E-11  2.65E-10  2.00E-10
  3.90E-10  5.01E-10  1.38E-08  2.79E-08  4.63E-07  2.87E-07  7.87E-08
 -2.8276E+00 -1.5735E+00 -1.5726E+00 -1.5726E+00  1.6414E-01  4.2536E-01
  4.2536E-01  4.3800E-01  4.7238E-01  5.1290E-01  1.2010E+00  1.2652E+00
  1.2652E+00  1.3042E+00  1.4794E+00
  prteigrs : nnsclo,ikpt=  300    3 max resid (incl. the buffer)=  4.62586E-07
 Non-SCF case, kpt    4 ( -0.37500  0.37500  0.12500), residuals and eigenvalues=
  3.78E-11  3.10E-11  2.57E-11  2.74E-11  6.24E-11  1.50E-10  5.70E-11  1.56E-09
  1.60E-09  8.27E-10  8.98E-10  8.05E-09  1.04E-09  1.35E-05  6.35E-06
 -2.8259E+00 -1.5815E+00 -1.5756E+00 -1.5727E+00  2.9121E-01  3.9632E-01
  3.9696E-01  4.7488E-01  5.2407E-01  5.3269E-01  8.4630E-01  1.0869E+00
  1.1032E+00  1.3896E+00  1.4343E+00
  prteigrs : nnsclo,ikpt=  300    4 max resid (incl. the buffer)=  1.34914E-05
 Non-SCF case, kpt    5 ( -0.37500 -0.37500  0.12500), residuals and eigenvalues=
  3.60E-11  3.08E-11  3.06E-11  5.73E-11  8.10E-11  1.46E-11  6.19E-11  1.10E-10
  5.22E-10  1.53E-10  2.22E-10  3.93E-11  1.45E-08  3.33E-10  9.81E-09
 -2.8246E+00 -1.5804E+00 -1.5804E+00 -1.5738E+00  3.6700E-01  3.6700E-01
  3.8478E-01  5.0576E-01  5.0576E-01  7.2769E-01  7.2769E-01  7.8303E-01
  1.2953E+00  1.3062E+00  1.3062E+00
  prteigrs : nnsclo,ikpt=  300    5 max resid (incl. the buffer)=  1.44870E-08
 Non-SCF case, kpt    6 ( -0.37500  0.37500  0.37500), residuals and eigenvalues=
  2.09E-11  1.92E-11  2.57E-11  7.30E-11  1.94E-11  6.88E-11  6.71E-11  3.79E-11
  7.50E-11  1.24E-11  4.22E-11  2.51E-11  2.73E-09  3.98E-11  4.23E-09
 -2.8237E+00 -1.5800E+00 -1.5788E+00 -1.5788E+00  3.3185E-01  3.5046E-01
  4.9184E-01  4.9184E-01  5.2651E-01  6.2714E-01  8.6678E-01  8.6678E-01
  1.0803E+00  1.0981E+00  1.3453E+00
  prteigrs : nnsclo,ikpt=  300    6 max resid (incl. the buffer)=  4.23165E-09

======================================================================
 Calculating and writing out Kohn-Sham electronic Structure file
 Using conjugate gradient wavefunctions and energies (kssform=3)

 outkss : COMMENT - 
 At least one NC pseudopotential has more that one projector per angular channel
 number of Gamma centered plane waves   1721
 number of Gamma centered shells     61
 number of bands     13
 maximum angular momentum components      3
 Conjugate gradient eigenvalues
   k    eigenvalues [eV]
   1      -79.65  -45.60  -45.43  -45.43    6.05    8.77    8.77   11.11   11.11
           12.17   27.31   27.31   28.40
   2      -79.59  -45.65  -45.52  -45.43    7.65    8.48    9.76   11.43   11.55
           15.76   18.88   25.20   25.28
   3      -79.67  -45.45  -45.43  -45.43    4.01    9.75    9.75   10.01   10.47
           11.39   32.11   33.72   33.72
   4      -79.62  -45.65  -45.50  -45.43    6.98    9.05    9.25   10.77   12.16
           12.31   21.85   28.74   29.40
   5      -79.59  -45.62  -45.62  -45.46    8.41    8.41    8.90   11.64   11.64
           18.48   18.48   20.27   34.53
   6      -79.57  -45.61  -45.58  -45.58    7.49    7.73   11.47   11.47   12.23
           15.91   22.81   22.81   28.10
   1      -76.93  -42.98  -42.80  -42.80    6.58   10.48   10.48   13.61   13.61
           14.14   28.15   28.15   29.27
   2      -76.87  -43.04  -42.89  -42.80    8.96   10.07   10.85   13.89   14.14
           17.26   20.25   26.03   26.07
   3      -76.94  -42.82  -42.79  -42.79    4.47   11.57   11.57   11.92   12.85
           13.96   32.68   34.43   34.43
   4      -76.90  -43.04  -42.88  -42.80    7.92   10.78   10.80   12.92   14.26
           14.50   23.03   29.58   30.02
   5      -76.86  -43.00  -43.00  -42.82    9.99    9.99   10.47   13.76   13.76
           19.80   19.80   21.31   35.25
   6      -76.84  -42.99  -42.96  -42.96    9.03    9.54   13.38   13.38   14.33
           17.07   23.59   23.59   29.40
 Test on the normalization of the wavefunctions
  min sum_G |a(n,k,G)| =  1.000000
  max sum_G |a(n,k,G)| =  1.000000
 Test on the orthogonalization of the wavefunctions
  min sum_G a(n,k,G)a(n',k,G) =  0.000000
  max sum_G a(n,k,G)a(n',k,G) =  0.000000

================================================================================

 ----iterations are completed or convergence reached----

 Mean square residual over all n,k,spin=   7.5765E-05; max=  5.3078E-03
   0.1250  0.1250  0.1250    1  5.30775E-03 kpt; spin; max resid(k); each band:
  3.90E-11 9.27E-11 2.93E-11 4.75E-11 1.40E-11 3.56E-11 7.13E-11 9.51E-11
  1.26E-09 3.49E-10 1.63E-11 5.87E-11 7.34E-11 6.95E-09 5.31E-03
   0.3750  0.1250  0.1250    1  1.44542E-03 kpt; spin; max resid(k); each band:
  3.62E-11 2.32E-11 1.65E-11 5.61E-11 4.88E-11 4.64E-11 3.99E-11 1.81E-11
  1.55E-11 3.23E-11 7.82E-11 3.21E-11 1.35E-11 1.08E-07 1.45E-03
  -0.1250  0.1250  0.1250    1  7.36366E-07 kpt; spin; max resid(k); each band:
  2.57E-11 1.58E-11 5.48E-11 4.42E-11 1.04E-11 3.16E-11 2.27E-10 3.43E-10
  2.96E-10 3.84E-10 1.60E-08 2.89E-08 7.36E-07 2.67E-07 6.88E-08
  -0.3750  0.3750  0.1250    1  1.82538E-05 kpt; spin; max resid(k); each band:
  3.97E-11 2.74E-11 3.04E-11 2.15E-11 4.50E-12 2.40E-10 1.34E-11 1.97E-09
  1.10E-09 2.31E-10 3.67E-10 4.09E-09 1.61E-10 7.83E-07 1.83E-05
  -0.3750 -0.3750  0.1250    1  2.87688E-08 kpt; spin; max resid(k); each band:
  5.36E-11 3.60E-11 4.28E-11 6.23E-11 7.51E-11 6.17E-11 1.10E-10 5.53E-11
  4.21E-10 5.44E-11 2.35E-10 1.08E-11 7.58E-09 3.22E-10 2.88E-08
  -0.3750  0.3750  0.3750    1  1.65715E-09 kpt; spin; max resid(k); each band:
  2.29E-11 1.51E-11 3.07E-11 6.84E-11 1.76E-11 8.76E-11 8.43E-11 5.21E-11
  5.72E-11 6.49E-11 2.88E-11 8.55E-11 3.68E-10 1.11E-11 1.66E-09
   0.1250  0.1250  0.1250    2  5.71266E-03 kpt; spin; max resid(k); each band:
  3.70E-11 5.00E-12 3.17E-11 5.27E-11 1.45E-11 2.43E-11 5.43E-11 4.78E-11
  1.31E-09 2.17E-10 6.65E-11 9.33E-11 1.02E-11 8.17E-09 5.71E-03
   0.3750  0.1250  0.1250    2  1.13081E-03 kpt; spin; max resid(k); each band:
  3.42E-11 2.36E-11 1.72E-11 6.45E-11 1.95E-11 2.69E-11 5.50E-12 2.48E-11
  2.31E-11 1.31E-11 3.61E-11 2.47E-11 3.26E-11 3.10E-08 1.13E-03
  -0.1250  0.1250  0.1250    2  4.62586E-07 kpt; spin; max resid(k); each band:
  1.87E-11 1.41E-11 5.81E-11 2.19E-11 7.26E-12 2.80E-11 2.65E-10 2.00E-10
  3.90E-10 5.01E-10 1.38E-08 2.79E-08 4.63E-07 2.87E-07 7.87E-08
  -0.3750  0.3750  0.1250    2  1.34914E-05 kpt; spin; max resid(k); each band:
  3.78E-11 3.10E-11 2.57E-11 2.74E-11 6.24E-11 1.50E-10 5.70E-11 1.56E-09
  1.60E-09 8.27E-10 8.98E-10 8.05E-09 1.04E-09 1.35E-05 6.35E-06
  -0.3750 -0.3750  0.1250    2  1.44870E-08 kpt; spin; max resid(k); each band:
  3.60E-11 3.08E-11 3.06E-11 5.73E-11 8.10E-11 1.46E-11 6.19E-11 1.10E-10
  5.22E-10 1.53E-10 2.22E-10 3.93E-11 1.45E-08 3.33E-10 9.81E-09
  -0.3750  0.3750  0.3750    2  4.23165E-09 kpt; spin; max resid(k); each band:
  2.09E-11 1.92E-11 2.57E-11 7.30E-11 1.94E-11 6.88E-11 6.71E-11 3.79E-11
  7.50E-11 1.24E-11 4.22E-11 2.51E-11 2.73E-09 3.98E-11 4.23E-09
 reduced coordinates (array xred) for    1 atoms
       0.000000000000      0.000000000000      0.000000000000

 cartesian coordinates (angstrom) at end:
    1      0.00000000000000     0.00000000000000     0.00000000000000
 length scales=  5.420000000000  5.420000000000  5.420000000000 bohr
              =  2.868140470558  2.868140470558  2.868140470558 angstroms
 prteigrs : about to open file Fe_e50_k4_noSO.o_DS2_EIG
 Eigenvalues (   eV  ) for nkpt=   6  k points, SPIN UP:
 kpt#   1, nband= 15, wtk=  0.12500, kpt=  0.1250  0.1250  0.1250 (reduced coord)
 -79.65454 -45.59583 -45.43403 -45.43403   6.04951   8.77432   8.77432  11.11494
  11.11494  12.16959  27.30522  27.30522  28.40045  38.94362  44.14707
 kpt#   2, nband= 15, wtk=  0.18750, kpt=  0.3750  0.1250  0.1250 (reduced coord)
 -79.59423 -45.65218 -45.51823 -45.43381   7.64650   8.48451   9.76405  11.43111
  11.54837  15.75738  18.87793  25.19654  25.27669  40.19081  44.31784
 kpt#   3, nband= 15, wtk=  0.09375, kpt= -0.1250  0.1250  0.1250 (reduced coord)
 -79.66646 -45.44828 -45.42746 -45.42746   4.01147   9.74523   9.74523  10.01445
  10.47478  11.38756  32.10948  33.71989  33.71989  34.85490  39.65991
 kpt#   4, nband= 15, wtk=  0.37500, kpt= -0.3750  0.3750  0.1250 (reduced coord)
 -79.62365 -45.64567 -45.50271 -45.43009   6.98369   9.04706   9.24544  10.76726
  12.16170  12.31178  21.85077  28.74013  29.40180  37.14428  38.27472
 kpt#   5, nband= 15, wtk=  0.12500, kpt= -0.3750 -0.3750  0.1250 (reduced coord)
 -79.58922 -45.61751 -45.61751 -45.45649   8.40886   8.40886   8.89741  11.63760
  11.63760  18.47797  18.47797  20.26899  34.52702  34.86926  34.86926
 kpt#   6, nband= 15, wtk=  0.09375, kpt= -0.3750  0.3750  0.3750 (reduced coord)
 -79.56586 -45.60897 -45.58002 -45.58002   7.48965   7.73424  11.47350  11.47350
  12.23433  15.91177  22.80562  22.80562  28.09973  28.90971  35.67973
 Eigenvalues (   eV  ) for nkpt=   6  k points, SPIN DOWN:
 kpt#   1, nband= 15, wtk=  0.12500, kpt=  0.1250  0.1250  0.1250 (reduced coord)
 -76.92883 -42.98027 -42.79993 -42.79993   6.57902  10.48372  10.48372  13.61169
  13.61169  14.13881  28.14887  28.14887  29.26570  39.12935  44.79558
 kpt#   2, nband= 15, wtk=  0.18750, kpt=  0.3750  0.1250  0.1250 (reduced coord)
 -76.86689 -43.04355 -42.89413 -42.80087   8.96430  10.07148  10.84819  13.89165
  14.14294  17.26307  20.24889  26.02978  26.06773  40.63755  45.03889
 kpt#   3, nband= 15, wtk=  0.09375, kpt= -0.1250  0.1250  0.1250 (reduced coord)
 -76.94317 -42.81711 -42.79251 -42.79251   4.46642  11.57470  11.57470  11.91851
  12.85419  13.95680  32.68009  34.42685  34.42685  35.49012  40.25549
 kpt#   4, nband= 15, wtk=  0.37500, kpt= -0.3750  0.3750  0.1250 (reduced coord)
 -76.89660 -43.03611 -42.87557 -42.79579   7.92421  10.78433  10.80185  12.92211
  14.26077  14.49525  23.02900  29.57724  30.01898  37.81414  39.02835
 kpt#   5, nband= 15, wtk=  0.12500, kpt= -0.3750 -0.3750  0.1250 (reduced coord)
 -76.86082 -43.00422 -43.00422 -42.82481   9.98647   9.98647  10.47031  13.76231
  13.76231  19.80137  19.80137  21.30723  35.24632  35.54334  35.54334
 kpt#   6, nband= 15, wtk=  0.09375, kpt= -0.3750  0.3750  0.3750 (reduced coord)
 -76.83670 -42.99422 -42.96215 -42.96215   9.03014   9.53661  13.38354  13.38354
  14.32719  17.06540  23.58626  23.58626  29.39587  29.88061  36.60838
 Total charge density [el/Bohr^3]
,     Maximum=    3.6479E+00  at reduced coord.    0.8667    0.9333    0.9333
,Next maximum=    3.6479E+00  at reduced coord.    0.9333    0.8667    0.9333
,     Minimum=    1.7800E-02  at reduced coord.    0.0000    0.0000    0.0000
,Next minimum=    3.6324E-02  at reduced coord.    0.6000    0.5000    0.1000
,  Integrated=    1.6000E+01
 Spin up density      [el/Bohr^3]
,     Maximum=    2.1972E+00  at reduced coord.    0.0000    0.9000    0.9000
,Next maximum=    2.1972E+00  at reduced coord.    0.9000    0.0000    0.9000
,     Minimum=    8.9193E-03  at reduced coord.    0.0000    0.0000    0.0000
,Next minimum=    1.7275E-02  at reduced coord.    0.6333    0.5000    0.1333
,  Integrated=    9.0387E+00
 Spin down density    [el/Bohr^3]
,     Maximum=    1.6130E+00  at reduced coord.    0.8667    0.9667    0.9667
,Next maximum=    1.6130E+00  at reduced coord.    0.9667    0.8667    0.9667
,     Minimum=    8.8811E-03  at reduced coord.    0.0000    0.0000    0.0000
,Next minimum=    1.8903E-02  at reduced coord.    0.6000    0.5000    0.1000
,  Integrated=    6.9613E+00
 Magnetization (spin up - spin down) [el/Bohr^3]
,     Maximum=    7.7057E-01  at reduced coord.    0.0000    0.9000    0.9000
,Next maximum=    7.7057E-01  at reduced coord.    0.9000    0.0000    0.9000
,     Minimum=   -2.2958E-03  at reduced coord.    0.7333    0.5000    0.2333
,Next minimum=   -2.2958E-03  at reduced coord.    0.5000    0.7333    0.2333
,  Integrated=    2.0773E+00
 Relative magnetization (=zeta, between -1 and 1)
,     Maximum=    2.9594E-01  at reduced coord.    0.0000    0.7333    0.7333
,Next maximum=    2.9594E-01  at reduced coord.    0.7333    0.0000    0.7333
,     Minimum=   -6.0257E-02  at reduced coord.    0.7333    0.4667    0.2333
,Next minimum=   -6.0257E-02  at reduced coord.    0.7667    0.5000    0.2333

== END DATASET(S) ==============================================================
================================================================================
  
 -outvars: echo values of variables after computation  --------
            acell      5.4200000000E+00  5.4200000000E+00  5.4200000000E+00 Bohr
              amu      5.58470000E+01
             ecut      5.00000000E+01 Hartree
           enunit           1
           etotal1    -1.2268610208E+02
            fcart1    -0.0000000000E+00 -0.0000000000E+00 -0.0000000000E+00
           getden1          0
           getden2          1
             iscf1          7
             iscf2         -2
           jdtset        1    2
              kpt1     6.25000000E-02  6.25000000E-02  6.25000000E-02
                       1.87500000E-01  6.25000000E-02  6.25000000E-02
                       3.12500000E-01  6.25000000E-02  6.25000000E-02
                       4.37500000E-01  6.25000000E-02  6.25000000E-02
                      -6.25000000E-02  6.25000000E-02  6.25000000E-02
                       1.87500000E-01  1.87500000E-01  6.25000000E-02
                       3.12500000E-01  1.87500000E-01  6.25000000E-02
                      -1.87500000E-01  1.87500000E-01  6.25000000E-02
                       3.12500000E-01  3.12500000E-01  6.25000000E-02
                      -3.12500000E-01  3.12500000E-01  6.25000000E-02
                      -1.87500000E-01  3.12500000E-01  6.25000000E-02
                      -4.37500000E-01  4.37500000E-01  6.25000000E-02
                      -3.12500000E-01  4.37500000E-01  6.25000000E-02
                      -4.37500000E-01 -4.37500000E-01  6.25000000E-02
                      -3.12500000E-01 -4.37500000E-01  6.25000000E-02
                       1.87500000E-01  1.87500000E-01  1.87500000E-01
                       3.12500000E-01  1.87500000E-01  1.87500000E-01
                      -1.87500000E-01  1.87500000E-01  1.87500000E-01
                      -3.12500000E-01  3.12500000E-01  1.87500000E-01
                      -4.37500000E-01  4.37500000E-01  1.87500000E-01
                      -3.12500000E-01  4.37500000E-01  1.87500000E-01
                      -4.37500000E-01 -4.37500000E-01  1.87500000E-01
                      -3.12500000E-01  3.12500000E-01  3.12500000E-01
                      -4.37500000E-01  4.37500000E-01  3.12500000E-01
                      -4.37500000E-01 -4.37500000E-01  3.12500000E-01
                      -4.37500000E-01  4.37500000E-01  4.37500000E-01
              kpt2     1.25000000E-01  1.25000000E-01  1.25000000E-01
                       3.75000000E-01  1.25000000E-01  1.25000000E-01
                      -1.25000000E-01  1.25000000E-01  1.25000000E-01
                      -3.75000000E-01  3.75000000E-01  1.25000000E-01
                      -3.75000000E-01 -3.75000000E-01  1.25000000E-01
                      -3.75000000E-01  3.75000000E-01  3.75000000E-01
           kptopt           4
         kptrlatt1       8    0    0      0    8    0      0    0    8
         kptrlatt2       4    0    0      0    4    0      0    0    4
          kptrlen1     3.75508615E+01
          kptrlen2     1.87754308E+01
          kssform1          1
          kssform2          3
P           mkmem1         26
P           mkmem2          6
            natom           1
            nband1         10
            nband2         15
         nbandkss1          0
         nbandkss2         13
           nbdbuf1          0
           nbdbuf2         10
           ndtset           2
            ngfft          30      30      30
             nkpt1         26
             nkpt2          6
           nspden           2
           nsppol           2
            nstep1        100
            nstep2        300
             nsym          48
           ntypat           1
              occ      1.000000  1.000000  1.000000  1.000000  1.000000  1.000000
                       1.000000  1.000000  1.000000  1.000000
                       1.000000  1.000000  1.000000  1.000000  1.000000  1.000000
                       1.000000  1.000000  1.000000  1.000000
                       1.000000  1.000000  1.000000  1.000000  1.000000  1.000000
                       1.000000  1.000000  1.000000  0.000000
                       1.000000  1.000000  1.000000  1.000000  1.000000  1.000000
                       1.000000  1.000000  1.000000  0.000000
                       1.000000  1.000000  1.000000  1.000000  1.000000  1.000000
                       1.000000  1.000000  1.000000  1.000000
                       1.000000  1.000000  1.000000  1.000000  1.000000  1.000000
                       1.000000  1.000000  1.000000  0.000000
                       1.000000  1.000000  1.000000  1.000000  1.000000  1.000000
                       1.000000  1.000000  1.000000  0.000000
                       1.000000  1.000000  1.000000  1.000000  1.000000  1.000000
                       1.000000  1.000000  1.000000  1.000000
                       1.000000  1.000000  1.000000  1.000000  1.000000  1.000000
                       1.000000  1.000000  1.000000  0.000000
                       1.000000  1.000000  1.000000  1.000000  1.000000  1.000000
                       1.000000  1.000000  1.000000  1.000000
                       1.000000  1.000000  1.000000  1.000000  1.000000  1.000000
                       1.000000  1.000000  1.000000  1.000000
                       1.000000  1.000000  1.000000  1.000000  1.000000  1.000000
                       1.000000  1.000000  0.725232  0.000030
                       1.000000  1.000000  1.000000  1.000000  1.000000  1.000000
                       1.000000  1.000000  1.000000  0.000000
                       1.000000  1.000000  1.000000  1.000000  1.000000  1.000000
                       1.000000  1.000000  0.727788  0.000000
                       1.000000  1.000000  1.000000  1.000000  1.000000  1.000000
                       1.000000  1.000000  0.999999  0.000000
                       1.000000  1.000000  1.000000  1.000000  1.000000  1.000000
                       1.000000  1.000000  1.000000  0.000000
                       1.000000  1.000000  1.000000  1.000000  1.000000  1.000000
                       1.000000  1.000000  1.000000  0.000000
                       1.000000  1.000000  1.000000  1.000000  1.000000  1.000000
                       1.000000  1.000000  1.000000  1.000000
                       1.000000  1.000000  1.000000  1.000000  1.000000  1.000000
                       1.000000  1.000000  1.000000  0.602759
                       1.000000  1.000000  1.000000  1.000000  1.000000  1.000000
                       1.000000  1.000000  0.000011  0.000000
                       1.000000  1.000000  1.000000  1.000000  1.000000  1.000000
                       1.000000  1.000000  0.978258  0.000000
                       1.000000  1.000000  1.000000  1.000000  1.000000  1.000000
                       1.000000  1.000000  0.119151  0.000000
                       1.000000  1.000000  1.000000  1.000000  1.000000  1.000000
                       1.000000  1.000000  1.000000  0.000000
                       1.000000  1.000000  1.000000  1.000000  1.000000  1.000000
                       1.000000  1.000000  0.011802  0.000000
                       1.000000  1.000000  1.000000  1.000000  1.000000  1.000000
                       1.000000  0.193699  0.193699  0.000000
                       1.000000  1.000000  1.000000  1.000000  1.000000  1.000000
                       0.227933  0.227933  0.000112  0.000000
                       1.000000  1.000000  1.000000  1.000000  1.000000  1.000000
                       1.000000  0.540131  0.000000  0.000000
                       1.000000  1.000000  1.000000  1.000000  1.000000  1.000000
                       1.000000  0.000000  0.000000  0.000000
                       1.000000  1.000000  1.000000  1.000000  1.000000  1.000000
                       1.000000  0.000000  0.000000  0.000000
                       1.000000  1.000000  1.000000  1.000000  1.000000  1.000000
                       1.000000  0.000000  0.000000  0.000000
                       1.000000  1.000000  1.000000  1.000000  1.000000  1.000000
                       1.000000  1.000000  0.000000  0.000000
                       1.000000  1.000000  1.000000  1.000000  1.000000  1.000000
                       1.000000  0.000000  0.000000  0.000000
                       1.000000  1.000000  1.000000  1.000000  1.000000  1.000000
                       1.000000  0.000000  0.000000  0.000000
                       1.000000  1.000000  1.000000  1.000000  1.000000  1.000000
                       1.000000  0.219167  0.000000  0.000000
                       1.000000  1.000000  1.000000  1.000000  1.000000  1.000000
                       1.000000  0.000000  0.000000  0.000000
                       1.000000  1.000000  1.000000  1.000000  1.000000  1.000000
                       1.000000  0.000000  0.000000  0.000000
                       1.000000  1.000000  1.000000  1.000000  1.000000  1.000000
                       1.000000  0.000000  0.000000  0.000000
                       1.000000  1.000000  1.000000  1.000000  1.000000  1.000000
                       1.000000  0.000000  0.000000  0.000000
                       1.000000  1.000000  1.000000  1.000000  1.000000  1.000000
                       1.000000  0.000000  0.000000  0.000000
                       1.000000  1.000000  1.000000  1.000000  1.000000  1.000000
                       1.000000  0.000000  0.000000  0.000000
                       1.000000  1.000000  1.000000  1.000000  1.000000  1.000000
                       1.000000  0.000000  0.000000  0.000000
                       1.000000  1.000000  1.000000  1.000000  1.000000  1.000000
                       1.000000  0.000000  0.000000  0.000000
                       1.000000  1.000000  1.000000  1.000000  1.000000  1.000000
                       1.000000  0.000000  0.000000  0.000000
                       1.000000  1.000000  1.000000  1.000000  1.000000  1.000000
                       1.000000  0.998434  0.126415  0.000000
                       1.000000  1.000000  1.000000  1.000000  1.000000  1.000000
                       1.000000  0.076609  0.000000  0.000000
                       1.000000  1.000000  1.000000  1.000000  1.000000  1.000000
                       1.000000  0.000000  0.000000  0.000000
                       1.000000  1.000000  1.000000  1.000000  1.000000  1.000000
                       1.000000  0.000000  0.000000  0.000000
                       1.000000  1.000000  1.000000  1.000000  1.000000  1.000000
                       1.000000  0.000000  0.000000  0.000000
                       1.000000  1.000000  1.000000  1.000000  1.000000  1.000000
                       0.002951  0.002951  0.000000  0.000000
                       1.000000  1.000000  1.000000  1.000000  1.000000  1.000000
                       0.000002  0.000000  0.000000  0.000000
                       1.000000  1.000000  1.000000  1.000000  1.000000  1.000000
                       0.000000  0.000000  0.000000  0.000000
                       1.000000  1.000000  1.000000  1.000000  1.000000  1.000000
                       0.000000  0.000000  0.000000  0.000000
           occopt           7
            rprim     -5.0000000000E-01  5.0000000000E-01  5.0000000000E-01
                       5.0000000000E-01 -5.0000000000E-01  5.0000000000E-01
                       5.0000000000E-01  5.0000000000E-01 -5.0000000000E-01
           shiftk      5.00000000E-01  5.00000000E-01  5.00000000E-01
           so_psp           0
          spgroup         229
           spinat      0.0000000000E+00  0.0000000000E+00  5.0000000000E+00
           strten1     2.6706274605E-02  2.6706274605E-02  2.6706274605E-02
                       0.0000000000E+00  0.0000000000E+00  0.0000000000E+00
        symmorphi1          1
        symmorphi2          0
           symrel      1  0  0   0  1  0   0  0  1      -1  0  0   0 -1  0   0  0 -1
                      -1 -1 -1   0  0  1   0  1  0       1  1  1   0  0 -1   0 -1  0
                       0  1  0   1  0  0  -1 -1 -1       0 -1  0  -1  0  0   1  1  1
                       0  0  1  -1 -1 -1   1  0  0       0  0 -1   1  1  1  -1  0  0
                       0  1  0   1  0  0   0  0  1       0 -1  0  -1  0  0   0  0 -1
                      -1 -1 -1   0  0  1   1  0  0       1  1  1   0  0 -1  -1  0  0
                       1  0  0   0  1  0  -1 -1 -1      -1  0  0   0 -1  0   1  1  1
                       0  0  1  -1 -1 -1   0  1  0       0  0 -1   1  1  1   0 -1  0
                      -1 -1 -1   1  0  0   0  0  1       1  1  1  -1  0  0   0  0 -1
                       0  1  0   0  0  1   1  0  0       0 -1  0   0  0 -1  -1  0  0
                       1  0  0  -1 -1 -1   0  1  0      -1  0  0   1  1  1   0 -1  0
                       0  0  1   0  1  0  -1 -1 -1       0  0 -1   0 -1  0   1  1  1
                       1  0  0  -1 -1 -1   0  0  1      -1  0  0   1  1  1   0  0 -1
                       0  1  0   0  0  1  -1 -1 -1       0 -1  0   0  0 -1   1  1  1
                      -1 -1 -1   1  0  0   0  1  0       1  1  1  -1  0  0   0 -1  0
                       0  0  1   0  1  0   1  0  0       0  0 -1   0 -1  0  -1  0  0
                       0  1  0  -1 -1 -1   0  0  1       0 -1  0   1  1  1   0  0 -1
                       1  0  0   0  0  1  -1 -1 -1      -1  0  0   0  0 -1   1  1  1
                      -1 -1 -1   0  1  0   1  0  0       1  1  1   0 -1  0  -1  0  0
                       0  0  1   1  0  0   0  1  0       0  0 -1  -1  0  0   0 -1  0
                      -1 -1 -1   0  1  0   0  0  1       1  1  1   0 -1  0   0  0 -1
                       1  0  0   0  0  1   0  1  0      -1  0  0   0  0 -1   0 -1  0
                       0  1  0  -1 -1 -1   1  0  0       0 -1  0   1  1  1  -1  0  0
                       0  0  1   1  0  0  -1 -1 -1       0  0 -1  -1  0  0   1  1  1
           toldfe1     1.00000000E-08 Hartree
           toldfe2     0.00000000E+00 Hartree
           tolwfr1     0.00000000E+00
           tolwfr2     1.00000000E-10
           tsmear      5.00000000E-03 Hartree
            typat      1
              wtk1       0.01563    0.04688    0.04688    0.02344    0.01172    0.04688
                         0.09375    0.04688    0.01563    0.04688    0.04688    0.04688
                         0.09375    0.04688    0.04688    0.01563    0.02344    0.01172
                         0.04688    0.04688    0.04688    0.04688    0.01172    0.04688
                         0.01563    0.01172
              wtk2       0.12500    0.18750    0.09375    0.37500    0.12500    0.09375
            znucl       26.00000

================================================================================


- Timing analysis has been suppressed with timopt=0



================================================================================

 Suggested references for the acknowledgment of ABINIT usage.

 The users of ABINIT have little formal obligations with respect to the ABINIT group
 (those specified in the GNU General Public License, http://www.gnu.org/copyleft/gpl.txt).
 However, it is common practice in the scientific literature,
 to acknowledge the efforts of people that have made the research possible.
 In this spirit, please find below suggested citations of work written by ABINIT developers,
 corresponding to implementations inside of ABINIT that you have used in the present run.
 Note also that it will be of great value to readers of publications presenting these results,
 to read papers enabling them to understand the theoretical formalism and details
 of the ABINIT implementation.
 For information on why they are suggested, see also http://www.abinit.org/about/?text=acknowledgments.

 [1] ABINIT : First-principles approach of materials and nanosystem properties.
 X. Gonze, B. Amadon, P.-M. Anglade, J.-M. Beuken, F. Bottin, P. Boulanger, F. Bruneval,
 D. Caliste, R. Caracas, M. Cote, T. Deutsch, L. Genovese, Ph. Ghosez, M. Giantomassi
 S. Goedecker, D.R. Hamann, P. Hermet, F. Jollet, G. Jomard, S. Leroux, M. Mancini, S. Mazevet,
 M.J.T. Oliveira, G. Onida, Y. Pouillon, T. Rangel, G.-M. Rignanese, D. Sangalli, R. Shaltaf,
 M. Torrent, M.J. Verstraete, G. Zerah, J.W. Zwanziger
 Computer Phys. Comm. 180, 2582-2615 (2009).
 Comment : the third generic paper describing the ABINIT project.
 Note that a version of this paper, that is not formatted for Computer Phys. Comm. 
 is available at http://www.abinit.org/about/ABINIT_CPC_v10.pdf .
 The licence allows the authors to put it on the Web.

 [2] A brief introduction to the ABINIT software package.
 X. Gonze, G.-M. Rignanese, M. Verstraete, J.-M. Beuken, Y. Pouillon, R. Caracas, F. Jollet,
 M. Torrent, G. Zerah, M. Mikami, Ph. Ghosez, M. Veithen, J.-Y. Raty, V. Olevano, F. Bruneval,
 L. Reining, R. Godby, G. Onida, D.R. Hamann, and D.C. Allan.
 Z. Kristallogr. 220, 558-562 (2005).
 Comment : the second generic paper describing the ABINIT project. Note that this paper
 should be cited especially if you are using the GW part of ABINIT, as several authors
 of this part are not in the list of authors of the first or third paper.
 The .pdf of the latter paper is available at http://www.abinit.org/about/zfk_0505-06_558-562.pdf.
 Note that it should not redistributed (Copyright by Oldenburg Wissenshaftverlag,
 the licence allows the authors to put it on the Web).


 And optionally :

 [3] First-principles computation of material properties : the ABINIT software project. 
 X. Gonze, J.-M. Beuken, R. Caracas, F. Detraux, M. Fuchs, G.-M. Rignanese, L. Sindic,
 M. Verstraete, G. Zerah, F. Jollet, M. Torrent, A. Roy, M. Mikami, Ph. Ghosez, J.-Y. Raty, D.C. Allan.
 Computational Materials Science 25, 478-492 (2002). http://dx.doi.org/10.1016/S0927-0256(02)00325-7
 Comment : the original paper describing the ABINIT project.

 [4] Fast radix 2, 3, 4 and 5 kernels for Fast Fourier Transformations
 on computers with overlapping multiply-add instructions.
 S. Goedecker, SIAM J. on Scientific Computing 18, 1605 (1997).
-
- Proc.   0 individual time (sec): cpu=         59.8  wall=         61.4

================================================================================

 Calculation completed.
.Delivered   14 WARNINGs and   7 COMMENTs to log file.
+Overall time at end (sec) : cpu=         59.8  wall=         61.4
