
.Version 7.4.1 of ABINIT 
.(MPI version, prepared for a x86_64_linux_gnu5.4 computer) 

.Copyright (C) 1998-2013 ABINIT group . 
 ABINIT comes with ABSOLUTELY NO WARRANTY.
 It is free software, and you are welcome to redistribute it
 under certain conditions (GNU General Public License,
 see ~abinit/COPYING or http://www.gnu.org/copyleft/gpl.txt).

 ABINIT is a project of the Universite Catholique de Louvain,
 Corning Inc. and other collaborators, see ~abinit/doc/developers/contributors.txt .
 Please read ~abinit/doc/users/acknowledgments.html for suggested
 acknowledgments of the ABINIT effort.
 For more information, see http://www.abinit.org .

.Starting date : Thu  2 Aug 2018.
- ( at 11h08 )
  

 herald :  WARNING -
  The starting date is more than 3 years after the initial release
  of this version of ABINIT, namely Aug 2013.
  This version of ABINIT is not supported anymore.
  Action : please, switch to a more recent version of ABINIT.
- input  file    -> Fe_noSO.in
- output file    -> Fe_e50_k4_noSO.out
- root for input  files -> Fe_e50_k4_noSO.i
- root for output files -> Fe_e50_k4_noSO.o


 DATASET    1 : space group Im -3 m (#229); Bravais cI (body-center cubic)
================================================================================
 Values of the parameters that define the memory need for DATASET  1.
   intxc =         0  ionmov =         0    iscf =         7 xclevel =         1
  lmnmax =         5   lnmax =         5   mband =        16  mffmem =         1
P  mgfft =        30   mkmem =        26 mpssoang=         3     mpw =      1365
  mqgrid =      3001   natom =         1    nfft =     27000    nkpt =        26
  nloalg =         4  nspden =         2 nspinor =         1  nsppol =         2
    nsym =        48  n1xccc =         0  ntypat =         1  occopt =         7
================================================================================
P This job should need less than                      31.014 Mbytes of memory.
  Rough estimation (10% accuracy) of disk space for files :
_ WF disk file :     17.331 Mbytes ; DEN or POT disk file :      0.414 Mbytes.
================================================================================


 DATASET    2 : space group Im -3 m (#229); Bravais cI (body-center cubic)
================================================================================
 Values of the parameters that define the memory need for DATASET  2.
   intxc =         0  ionmov =         0    iscf =        -2 xclevel =         1
  lmnmax =         5   lnmax =         5   mband =        15  mffmem =         1
P  mgfft =        30   mkmem =         6 mpssoang=         3     mpw =      1358
  mqgrid =      3001   natom =         1    nfft =     27000    nkpt =         6
  nloalg =         4  nspden =         2 nspinor =         1  nsppol =         2
    nsym =        48  n1xccc =         0  ntypat =         1  occopt =         7
================================================================================
P This job should need less than                      10.422 Mbytes of memory.
  Rough estimation (10% accuracy) of disk space for files :
_ WF disk file :      3.732 Mbytes ; DEN or POT disk file :      0.414 Mbytes.
================================================================================


 DATASET    3 : space group Im -3 m (#229); Bravais cI (body-center cubic)
================================================================================
 Values of the parameters that define the memory need for DATASET  3.
   intxc =         0  ionmov =         0    iscf =        -2 xclevel =         1
  lmnmax =         5   lnmax =         5   mband =        15  mffmem =         1
P  mgfft =        30   mkmem =         6 mpssoang=         3     mpw =      1358
  mqgrid =      3001   natom =         1    nfft =     27000    nkpt =         6
  nloalg =         4  nspden =         2 nspinor =         1  nsppol =         2
    nsym =        48  n1xccc =         0  ntypat =         1  occopt =         7
================================================================================
P This job should need less than                      10.422 Mbytes of memory.
  Rough estimation (10% accuracy) of disk space for files :
_ WF disk file :      3.732 Mbytes ; DEN or POT disk file :      0.414 Mbytes.
================================================================================


 DATASET    4 : space group Im -3 m (#229); Bravais cI (body-center cubic)
================================================================================
 Values of the parameters that define the memory need for DATASET  4.
   intxc =         0  ionmov =         0    iscf =        -2 xclevel =         1
  lmnmax =         5   lnmax =         5   mband =        15  mffmem =         1
P  mgfft =        30   mkmem =         6 mpssoang=         3     mpw =      1358
  mqgrid =      3001   natom =         1    nfft =     27000    nkpt =         6
  nloalg =         4  nspden =         2 nspinor =         1  nsppol =         2
    nsym =        48  n1xccc =         0  ntypat =         1  occopt =         7
================================================================================
P This job should need less than                      10.422 Mbytes of memory.
  Rough estimation (10% accuracy) of disk space for files :
_ WF disk file :      3.732 Mbytes ; DEN or POT disk file :      0.414 Mbytes.
================================================================================


 DATASET    5 : space group Im -3 m (#229); Bravais cI (body-center cubic)
================================================================================
 Values of the parameters that define the memory need for DATASET  5.
   intxc =         0  ionmov =         0    iscf =        -2 xclevel =         1
  lmnmax =         5   lnmax =         5   mband =        15  mffmem =         1
P  mgfft =        30   mkmem =         6 mpssoang=         3     mpw =      1358
  mqgrid =      3001   natom =         1    nfft =     27000    nkpt =         6
  nloalg =         4  nspden =         2 nspinor =         1  nsppol =         2
    nsym =        48  n1xccc =         0  ntypat =         1  occopt =         7
================================================================================
P This job should need less than                      10.422 Mbytes of memory.
  Rough estimation (10% accuracy) of disk space for files :
_ WF disk file :      3.732 Mbytes ; DEN or POT disk file :      0.414 Mbytes.
================================================================================


 DATASET    6 : space group Im -3 m (#229); Bravais cI (body-center cubic)
================================================================================
 Values of the parameters that define the memory need for DATASET  6.
   intxc =         0  ionmov =         0    iscf =        -2 xclevel =         1
  lmnmax =         5   lnmax =         5   mband =        15  mffmem =         1
P  mgfft =        30   mkmem =       140 mpssoang=         3     mpw =      1377
  mqgrid =      3001   natom =         1    nfft =     27000    nkpt =       140
  nloalg =         4  nspden =         2 nspinor =         1  nsppol =         2
    nsym =        48  n1xccc =         0  ntypat =         1  occopt =         7
================================================================================
P This job should need less than                      97.581 Mbytes of memory.
  Rough estimation (10% accuracy) of disk space for files :
_ WF disk file :     88.250 Mbytes ; DEN or POT disk file :      0.414 Mbytes.
================================================================================

--------------------------------------------------------------------------------
------------- Echo of variables that govern the present computation ------------
--------------------------------------------------------------------------------
-
- outvars: echo of selected default values                                      
-   accesswff0 =  0 , fftalg0 =112 , wfoptalg0 =  0
-
- outvars: echo of global parameters not present in the input file              
-  max_nthreads =    0
-
 -outvars: echo values of preprocessed input variables --------
            acell      5.4200000000E+00  5.4200000000E+00  5.4200000000E+00 Bohr
              amu      5.58470000E+01
             ecut      5.00000000E+01 Hartree
           enunit           1
           getden1          0
           getden2          1
           getden3          1
           getden4          1
           getden5          1
           getden6          1
             iscf1          7
             iscf2         -2
             iscf3         -2
             iscf4         -2
             iscf5         -2
             iscf6         -2
           jdtset        1    2    3    4    5    6
              kpt1     6.25000000E-02  6.25000000E-02  6.25000000E-02
                       1.87500000E-01  6.25000000E-02  6.25000000E-02
                       3.12500000E-01  6.25000000E-02  6.25000000E-02
                       4.37500000E-01  6.25000000E-02  6.25000000E-02
                      -6.25000000E-02  6.25000000E-02  6.25000000E-02
                       1.87500000E-01  1.87500000E-01  6.25000000E-02
                       3.12500000E-01  1.87500000E-01  6.25000000E-02
                      -1.87500000E-01  1.87500000E-01  6.25000000E-02
                       3.12500000E-01  3.12500000E-01  6.25000000E-02
                      -3.12500000E-01  3.12500000E-01  6.25000000E-02
                      -1.87500000E-01  3.12500000E-01  6.25000000E-02
                      -4.37500000E-01  4.37500000E-01  6.25000000E-02
                      -3.12500000E-01  4.37500000E-01  6.25000000E-02
                      -4.37500000E-01 -4.37500000E-01  6.25000000E-02
                      -3.12500000E-01 -4.37500000E-01  6.25000000E-02
                       1.87500000E-01  1.87500000E-01  1.87500000E-01
                       3.12500000E-01  1.87500000E-01  1.87500000E-01
                      -1.87500000E-01  1.87500000E-01  1.87500000E-01
                      -3.12500000E-01  3.12500000E-01  1.87500000E-01
                      -4.37500000E-01  4.37500000E-01  1.87500000E-01
                      -3.12500000E-01  4.37500000E-01  1.87500000E-01
                      -4.37500000E-01 -4.37500000E-01  1.87500000E-01
                      -3.12500000E-01  3.12500000E-01  3.12500000E-01
                      -4.37500000E-01  4.37500000E-01  3.12500000E-01
                      -4.37500000E-01 -4.37500000E-01  3.12500000E-01
                      -4.37500000E-01  4.37500000E-01  4.37500000E-01
              kpt2     1.25000000E-01  1.25000000E-01  1.25000000E-01
                       3.75000000E-01  1.25000000E-01  1.25000000E-01
                      -1.25000000E-01  1.25000000E-01  1.25000000E-01
                      -3.75000000E-01  3.75000000E-01  1.25000000E-01
                      -3.75000000E-01 -3.75000000E-01  1.25000000E-01
                      -3.75000000E-01  3.75000000E-01  3.75000000E-01
              kpt3     1.24978438E-01  1.25021562E-01  1.25021577E-01
                       3.74978423E-01  1.25021562E-01  1.25021577E-01
                      -1.25021562E-01  1.25021562E-01  1.25021562E-01
                      -3.75021577E-01  3.75021577E-01  1.25021577E-01
                      -3.75021577E-01 -3.74978423E-01  1.25021577E-01
                      -3.75021577E-01  3.75021577E-01  3.75021577E-01
              kpt4     1.25021562E-01  1.24978438E-01  1.25021577E-01
                       3.75021577E-01  1.24978423E-01  1.25021577E-01
                      -1.24978445E-01  1.24978445E-01  1.25021562E-01
                      -3.74978423E-01  3.74978423E-01  1.25021577E-01
                      -3.74978423E-01 -3.75021577E-01  1.25021577E-01
                      -3.74978423E-01  3.74978423E-01  3.75021577E-01
              kpt5     1.25021562E-01  1.25021562E-01  1.24978438E-01
                       3.75021577E-01  1.25021577E-01  1.24978423E-01
                      -1.24978445E-01  1.25021562E-01  1.24978445E-01
                      -3.74978423E-01  3.75021577E-01  1.24978431E-01
                      -3.74978423E-01 -3.74978423E-01  1.24978423E-01
                      -3.74978423E-01  3.75021577E-01  3.74978423E-01
              kpt6     3.12500000E-02  3.12500000E-02  3.12500000E-02
                       9.37500000E-02  3.12500000E-02  3.12500000E-02
                       1.56250000E-01  3.12500000E-02  3.12500000E-02
                       2.18750000E-01  3.12500000E-02  3.12500000E-02
                       2.81250000E-01  3.12500000E-02  3.12500000E-02
                       3.43750000E-01  3.12500000E-02  3.12500000E-02
                       4.06250000E-01  3.12500000E-02  3.12500000E-02
                       4.68750000E-01  3.12500000E-02  3.12500000E-02
                      -3.12500000E-02  3.12500000E-02  3.12500000E-02
                       9.37500000E-02  9.37500000E-02  3.12500000E-02
                       1.56250000E-01  9.37500000E-02  3.12500000E-02
                       2.18750000E-01  9.37500000E-02  3.12500000E-02
                       2.81250000E-01  9.37500000E-02  3.12500000E-02
                       3.43750000E-01  9.37500000E-02  3.12500000E-02
                       4.06250000E-01  9.37500000E-02  3.12500000E-02
                      -9.37500000E-02  9.37500000E-02  3.12500000E-02
                       1.56250000E-01  1.56250000E-01  3.12500000E-02
                       2.18750000E-01  1.56250000E-01  3.12500000E-02
                       2.81250000E-01  1.56250000E-01  3.12500000E-02
                       3.43750000E-01  1.56250000E-01  3.12500000E-02
                       4.06250000E-01  1.56250000E-01  3.12500000E-02
                      -1.56250000E-01  1.56250000E-01  3.12500000E-02
                      -9.37500000E-02  1.56250000E-01  3.12500000E-02
                       2.18750000E-01  2.18750000E-01  3.12500000E-02
                       2.81250000E-01  2.18750000E-01  3.12500000E-02
                       3.43750000E-01  2.18750000E-01  3.12500000E-02
                      -2.18750000E-01  2.18750000E-01  3.12500000E-02
                      -1.56250000E-01  2.18750000E-01  3.12500000E-02
                       2.81250000E-01  2.81250000E-01  3.12500000E-02
                       3.43750000E-01  2.81250000E-01  3.12500000E-02
                      -2.81250000E-01  2.81250000E-01  3.12500000E-02
                      -2.18750000E-01  2.81250000E-01  3.12500000E-02
                      -1.56250000E-01  2.81250000E-01  3.12500000E-02
                      -3.43750000E-01  3.43750000E-01  3.12500000E-02
                      -2.81250000E-01  3.43750000E-01  3.12500000E-02
                      -2.18750000E-01  3.43750000E-01  3.12500000E-02
                      -4.06250000E-01  4.06250000E-01  3.12500000E-02
                      -3.43750000E-01  4.06250000E-01  3.12500000E-02
                      -2.81250000E-01  4.06250000E-01  3.12500000E-02
                      -2.18750000E-01  4.06250000E-01  3.12500000E-02
                      -4.68750000E-01  4.68750000E-01  3.12500000E-02
                      -4.06250000E-01  4.68750000E-01  3.12500000E-02
                      -3.43750000E-01  4.68750000E-01  3.12500000E-02
                      -2.81250000E-01  4.68750000E-01  3.12500000E-02
                      -4.68750000E-01 -4.68750000E-01  3.12500000E-02
                      -4.06250000E-01 -4.68750000E-01  3.12500000E-02
                      -3.43750000E-01 -4.68750000E-01  3.12500000E-02
                      -2.81250000E-01 -4.68750000E-01  3.12500000E-02
                      -4.06250000E-01 -4.06250000E-01  3.12500000E-02
                      -3.43750000E-01 -4.06250000E-01  3.12500000E-02
                       outvar_i_n : Printing only first  50 k-points.
           kptopt1          4
           kptopt2          4
           kptopt3          0
           kptopt4          0
           kptopt5          0
           kptopt6          4
         kptrlatt1       8    0    0      0    8    0      0    0    8
         kptrlatt2       4    0    0      0    4    0      0    0    4
         kptrlatt6      16    0    0      0   16    0      0    0   16
          kptrlen1     3.75508615E+01
          kptrlen2     1.87754308E+01
          kptrlen3     3.00000000E+01
          kptrlen4     3.00000000E+01
          kptrlen5     3.00000000E+01
          kptrlen6     7.51017230E+01
          kssform1          1
          kssform2          3
          kssform3          3
          kssform4          3
          kssform5          3
          kssform6          3
P           mkmem1         26
P           mkmem2          6
P           mkmem3          6
P           mkmem4          6
P           mkmem5          6
P           mkmem6        140
            natom           1
            nband1         16
            nband2         15
            nband3         15
            nband4         15
            nband5         15
            nband6         15
         nbandkss1          0
         nbandkss2         13
         nbandkss3         13
         nbandkss4         13
         nbandkss5         13
         nbandkss6         13
           nbdbuf1          0
           nbdbuf2         10
           nbdbuf3         10
           nbdbuf4         10
           nbdbuf5         10
           nbdbuf6         10
           ndtset           6
            ngfft          30      30      30
             nkpt1         26
             nkpt2          6
             nkpt3          6
             nkpt4          6
             nkpt5          6
             nkpt6        140
           nspden           2
           nsppol           2
            nstep1        100
            nstep2        300
            nstep3        300
            nstep4        300
            nstep5        300
            nstep6        300
             nsym          48
           ntypat           1
              occ      1.000000  1.000000  1.000000  1.000000  1.000000  1.000000
                       1.000000  1.000000  0.000000  0.000000  0.000000  0.000000
                       0.000000  0.000000  0.000000  0.000000
                       1.000000  1.000000  1.000000  1.000000  1.000000  1.000000
                       1.000000  1.000000  0.000000  0.000000  0.000000  0.000000
                       0.000000  0.000000  0.000000  0.000000
                       1.000000  1.000000  1.000000  1.000000  1.000000  1.000000
                       1.000000  1.000000  0.000000  0.000000  0.000000  0.000000
                       0.000000  0.000000  0.000000  0.000000
                       1.000000  1.000000  1.000000  1.000000  1.000000  1.000000
                       1.000000  1.000000  0.000000  0.000000  0.000000  0.000000
                       0.000000  0.000000  0.000000  0.000000
                       1.000000  1.000000  1.000000  1.000000  1.000000  1.000000
                       1.000000  1.000000  0.000000  0.000000  0.000000  0.000000
                       0.000000  0.000000  0.000000  0.000000
                       1.000000  1.000000  1.000000  1.000000  1.000000  1.000000
                       1.000000  1.000000  0.000000  0.000000  0.000000  0.000000
                       0.000000  0.000000  0.000000  0.000000
                       1.000000  1.000000  1.000000  1.000000  1.000000  1.000000
                       1.000000  1.000000  0.000000  0.000000  0.000000  0.000000
                       0.000000  0.000000  0.000000  0.000000
                       1.000000  1.000000  1.000000  1.000000  1.000000  1.000000
                       1.000000  1.000000  0.000000  0.000000  0.000000  0.000000
                       0.000000  0.000000  0.000000  0.000000
                       1.000000  1.000000  1.000000  1.000000  1.000000  1.000000
                       1.000000  1.000000  0.000000  0.000000  0.000000  0.000000
                       0.000000  0.000000  0.000000  0.000000
                       1.000000  1.000000  1.000000  1.000000  1.000000  1.000000
                       1.000000  1.000000  0.000000  0.000000  0.000000  0.000000
                       0.000000  0.000000  0.000000  0.000000
                       1.000000  1.000000  1.000000  1.000000  1.000000  1.000000
                       1.000000  1.000000  0.000000  0.000000  0.000000  0.000000
                       0.000000  0.000000  0.000000  0.000000
                       1.000000  1.000000  1.000000  1.000000  1.000000  1.000000
                       1.000000  1.000000  0.000000  0.000000  0.000000  0.000000
                       0.000000  0.000000  0.000000  0.000000
                       1.000000  1.000000  1.000000  1.000000  1.000000  1.000000
                       1.000000  1.000000  0.000000  0.000000  0.000000  0.000000
                       0.000000  0.000000  0.000000  0.000000
                       1.000000  1.000000  1.000000  1.000000  1.000000  1.000000
                       1.000000  1.000000  0.000000  0.000000  0.000000  0.000000
                       0.000000  0.000000  0.000000  0.000000
                       1.000000  1.000000  1.000000  1.000000  1.000000  1.000000
                       1.000000  1.000000  0.000000  0.000000  0.000000  0.000000
                       0.000000  0.000000  0.000000  0.000000
                       1.000000  1.000000  1.000000  1.000000  1.000000  1.000000
                       1.000000  1.000000  0.000000  0.000000  0.000000  0.000000
                       0.000000  0.000000  0.000000  0.000000
                       1.000000  1.000000  1.000000  1.000000  1.000000  1.000000
                       1.000000  1.000000  0.000000  0.000000  0.000000  0.000000
                       0.000000  0.000000  0.000000  0.000000
                       1.000000  1.000000  1.000000  1.000000  1.000000  1.000000
                       1.000000  1.000000  0.000000  0.000000  0.000000  0.000000
                       0.000000  0.000000  0.000000  0.000000
                       1.000000  1.000000  1.000000  1.000000  1.000000  1.000000
                       1.000000  1.000000  0.000000  0.000000  0.000000  0.000000
                       0.000000  0.000000  0.000000  0.000000
                       1.000000  1.000000  1.000000  1.000000  1.000000  1.000000
                       1.000000  1.000000  0.000000  0.000000  0.000000  0.000000
                       0.000000  0.000000  0.000000  0.000000
                       1.000000  1.000000  1.000000  1.000000  1.000000  1.000000
                       1.000000  1.000000  0.000000  0.000000  0.000000  0.000000
                       0.000000  0.000000  0.000000  0.000000
                       1.000000  1.000000  1.000000  1.000000  1.000000  1.000000
                       1.000000  1.000000  0.000000  0.000000  0.000000  0.000000
                       0.000000  0.000000  0.000000  0.000000
                       1.000000  1.000000  1.000000  1.000000  1.000000  1.000000
                       1.000000  1.000000  0.000000  0.000000  0.000000  0.000000
                       0.000000  0.000000  0.000000  0.000000
                       1.000000  1.000000  1.000000  1.000000  1.000000  1.000000
                       1.000000  1.000000  0.000000  0.000000  0.000000  0.000000
                       0.000000  0.000000  0.000000  0.000000
                       1.000000  1.000000  1.000000  1.000000  1.000000  1.000000
                       1.000000  1.000000  0.000000  0.000000  0.000000  0.000000
                       0.000000  0.000000  0.000000  0.000000
                       1.000000  1.000000  1.000000  1.000000  1.000000  1.000000
                       1.000000  1.000000  0.000000  0.000000  0.000000  0.000000
                       0.000000  0.000000  0.000000  0.000000
                       1.000000  1.000000  1.000000  1.000000  1.000000  1.000000
                       1.000000  1.000000  0.000000  0.000000  0.000000  0.000000
                       0.000000  0.000000  0.000000  0.000000
                       1.000000  1.000000  1.000000  1.000000  1.000000  1.000000
                       1.000000  1.000000  0.000000  0.000000  0.000000  0.000000
                       0.000000  0.000000  0.000000  0.000000
                       1.000000  1.000000  1.000000  1.000000  1.000000  1.000000
                       1.000000  1.000000  0.000000  0.000000  0.000000  0.000000
                       0.000000  0.000000  0.000000  0.000000
                       1.000000  1.000000  1.000000  1.000000  1.000000  1.000000
                       1.000000  1.000000  0.000000  0.000000  0.000000  0.000000
                       0.000000  0.000000  0.000000  0.000000
                       1.000000  1.000000  1.000000  1.000000  1.000000  1.000000
                       1.000000  1.000000  0.000000  0.000000  0.000000  0.000000
                       0.000000  0.000000  0.000000  0.000000
                       1.000000  1.000000  1.000000  1.000000  1.000000  1.000000
                       1.000000  1.000000  0.000000  0.000000  0.000000  0.000000
                       0.000000  0.000000  0.000000  0.000000
                       1.000000  1.000000  1.000000  1.000000  1.000000  1.000000
                       1.000000  1.000000  0.000000  0.000000  0.000000  0.000000
                       0.000000  0.000000  0.000000  0.000000
                       1.000000  1.000000  1.000000  1.000000  1.000000  1.000000
                       1.000000  1.000000  0.000000  0.000000  0.000000  0.000000
                       0.000000  0.000000  0.000000  0.000000
                       1.000000  1.000000  1.000000  1.000000  1.000000  1.000000
                       1.000000  1.000000  0.000000  0.000000  0.000000  0.000000
                       0.000000  0.000000  0.000000  0.000000
                       1.000000  1.000000  1.000000  1.000000  1.000000  1.000000
                       1.000000  1.000000  0.000000  0.000000  0.000000  0.000000
                       0.000000  0.000000  0.000000  0.000000
                       1.000000  1.000000  1.000000  1.000000  1.000000  1.000000
                       1.000000  1.000000  0.000000  0.000000  0.000000  0.000000
                       0.000000  0.000000  0.000000  0.000000
                       1.000000  1.000000  1.000000  1.000000  1.000000  1.000000
                       1.000000  1.000000  0.000000  0.000000  0.000000  0.000000
                       0.000000  0.000000  0.000000  0.000000
                       1.000000  1.000000  1.000000  1.000000  1.000000  1.000000
                       1.000000  1.000000  0.000000  0.000000  0.000000  0.000000
                       0.000000  0.000000  0.000000  0.000000
                       1.000000  1.000000  1.000000  1.000000  1.000000  1.000000
                       1.000000  1.000000  0.000000  0.000000  0.000000  0.000000
                       0.000000  0.000000  0.000000  0.000000
                       1.000000  1.000000  1.000000  1.000000  1.000000  1.000000
                       1.000000  1.000000  0.000000  0.000000  0.000000  0.000000
                       0.000000  0.000000  0.000000  0.000000
                       1.000000  1.000000  1.000000  1.000000  1.000000  1.000000
                       1.000000  1.000000  0.000000  0.000000  0.000000  0.000000
                       0.000000  0.000000  0.000000  0.000000
                       1.000000  1.000000  1.000000  1.000000  1.000000  1.000000
                       1.000000  1.000000  0.000000  0.000000  0.000000  0.000000
                       0.000000  0.000000  0.000000  0.000000
                       1.000000  1.000000  1.000000  1.000000  1.000000  1.000000
                       1.000000  1.000000  0.000000  0.000000  0.000000  0.000000
                       0.000000  0.000000  0.000000  0.000000
                       1.000000  1.000000  1.000000  1.000000  1.000000  1.000000
                       1.000000  1.000000  0.000000  0.000000  0.000000  0.000000
                       0.000000  0.000000  0.000000  0.000000
                       1.000000  1.000000  1.000000  1.000000  1.000000  1.000000
                       1.000000  1.000000  0.000000  0.000000  0.000000  0.000000
                       0.000000  0.000000  0.000000  0.000000
                       1.000000  1.000000  1.000000  1.000000  1.000000  1.000000
                       1.000000  1.000000  0.000000  0.000000  0.000000  0.000000
                       0.000000  0.000000  0.000000  0.000000
                       1.000000  1.000000  1.000000  1.000000  1.000000  1.000000
                       1.000000  1.000000  0.000000  0.000000  0.000000  0.000000
                       0.000000  0.000000  0.000000  0.000000
                       1.000000  1.000000  1.000000  1.000000  1.000000  1.000000
                       1.000000  1.000000  0.000000  0.000000  0.000000  0.000000
                       0.000000  0.000000  0.000000  0.000000
                       1.000000  1.000000  1.000000  1.000000  1.000000  1.000000
                       1.000000  1.000000  0.000000  0.000000  0.000000  0.000000
                       0.000000  0.000000  0.000000  0.000000
                       1.000000  1.000000  1.000000  1.000000  1.000000  1.000000
                       1.000000  1.000000  0.000000  0.000000  0.000000  0.000000
                       0.000000  0.000000  0.000000  0.000000
                       1.000000  1.000000  1.000000  1.000000  1.000000  1.000000
                       1.000000  1.000000  0.000000  0.000000  0.000000  0.000000
                       0.000000  0.000000  0.000000  0.000000
           occopt           7
            rprim     -5.0000000000E-01  5.0000000000E-01  5.0000000000E-01
                       5.0000000000E-01 -5.0000000000E-01  5.0000000000E-01
                       5.0000000000E-01  5.0000000000E-01 -5.0000000000E-01
           shiftk      5.00000000E-01  5.00000000E-01  5.00000000E-01
           so_psp           0
          spgroup         229
           spinat      0.0000000000E+00  0.0000000000E+00  5.0000000000E+00
        symmorphi1          1
        symmorphi2          0
        symmorphi3          1
        symmorphi4          1
        symmorphi5          1
        symmorphi6          1
           symrel      1  0  0   0  1  0   0  0  1      -1  0  0   0 -1  0   0  0 -1
                      -1 -1 -1   0  0  1   0  1  0       1  1  1   0  0 -1   0 -1  0
                       0  1  0   1  0  0  -1 -1 -1       0 -1  0  -1  0  0   1  1  1
                       0  0  1  -1 -1 -1   1  0  0       0  0 -1   1  1  1  -1  0  0
                       0  1  0   1  0  0   0  0  1       0 -1  0  -1  0  0   0  0 -1
                      -1 -1 -1   0  0  1   1  0  0       1  1  1   0  0 -1  -1  0  0
                       1  0  0   0  1  0  -1 -1 -1      -1  0  0   0 -1  0   1  1  1
                       0  0  1  -1 -1 -1   0  1  0       0  0 -1   1  1  1   0 -1  0
                      -1 -1 -1   1  0  0   0  0  1       1  1  1  -1  0  0   0  0 -1
                       0  1  0   0  0  1   1  0  0       0 -1  0   0  0 -1  -1  0  0
                       1  0  0  -1 -1 -1   0  1  0      -1  0  0   1  1  1   0 -1  0
                       0  0  1   0  1  0  -1 -1 -1       0  0 -1   0 -1  0   1  1  1
                       1  0  0  -1 -1 -1   0  0  1      -1  0  0   1  1  1   0  0 -1
                       0  1  0   0  0  1  -1 -1 -1       0 -1  0   0  0 -1   1  1  1
                      -1 -1 -1   1  0  0   0  1  0       1  1  1  -1  0  0   0 -1  0
                       0  0  1   0  1  0   1  0  0       0  0 -1   0 -1  0  -1  0  0
                       0  1  0  -1 -1 -1   0  0  1       0 -1  0   1  1  1   0  0 -1
                       1  0  0   0  0  1  -1 -1 -1      -1  0  0   0  0 -1   1  1  1
                      -1 -1 -1   0  1  0   1  0  0       1  1  1   0 -1  0  -1  0  0
                       0  0  1   1  0  0   0  1  0       0  0 -1  -1  0  0   0 -1  0
                      -1 -1 -1   0  1  0   0  0  1       1  1  1   0 -1  0   0  0 -1
                       1  0  0   0  0  1   0  1  0      -1  0  0   0  0 -1   0 -1  0
                       0  1  0  -1 -1 -1   1  0  0       0 -1  0   1  1  1  -1  0  0
                       0  0  1   1  0  0  -1 -1 -1       0  0 -1  -1  0  0   1  1  1
           toldfe1     1.00000000E-10 Hartree
           toldfe2     0.00000000E+00 Hartree
           toldfe3     0.00000000E+00 Hartree
           toldfe4     0.00000000E+00 Hartree
           toldfe5     0.00000000E+00 Hartree
           toldfe6     0.00000000E+00 Hartree
           tolwfr1     0.00000000E+00
           tolwfr2     1.00000000E-16
           tolwfr3     1.00000000E-16
           tolwfr4     1.00000000E-16
           tolwfr5     1.00000000E-16
           tolwfr6     1.00000000E-16
           tsmear      5.00000000E-03 Hartree
            typat      1
              wtk1       0.01563    0.04688    0.04688    0.02344    0.01172    0.04688
                         0.09375    0.04688    0.01563    0.04688    0.04688    0.04688
                         0.09375    0.04688    0.04688    0.01563    0.02344    0.01172
                         0.04688    0.04688    0.04688    0.04688    0.01172    0.04688
                         0.01563    0.01172
              wtk2       0.12500    0.18750    0.09375    0.37500    0.12500    0.09375
              wtk3       1.00000    1.00000    1.00000    1.00000    1.00000    1.00000
              wtk4       1.00000    1.00000    1.00000    1.00000    1.00000    1.00000
              wtk5       1.00000    1.00000    1.00000    1.00000    1.00000    1.00000
              wtk6       0.00195    0.00586    0.00586    0.00586    0.00586    0.00586
                         0.00586    0.00293    0.00146    0.00586    0.01172    0.01172
                         0.01172    0.01172    0.01172    0.00586    0.00586    0.01172
                         0.01172    0.01172    0.00586    0.00586    0.00586    0.00586
                         0.01172    0.01172    0.00586    0.01172    0.00586    0.00586
                         0.00586    0.01172    0.00586    0.00586    0.01172    0.01172
                         0.00586    0.01172    0.01172    0.00586    0.00586    0.01172
                         0.01172    0.01172    0.00586    0.01172    0.01172    0.00586
                         0.00586    0.01172
                       outvars : Printing only first  50 k-points.
            znucl       26.00000

================================================================================

 chkinp: Checking input parameters for consistency, jdtset=   1.

 chkinp: Checking input parameters for consistency, jdtset=   2.

 chkinp: Checking input parameters for consistency, jdtset=   3.

 chkinp: Checking input parameters for consistency, jdtset=   4.

 chkinp: Checking input parameters for consistency, jdtset=   5.

 chkinp: Checking input parameters for consistency, jdtset=   6.

================================================================================
== DATASET  1 ==================================================================
-   nproc =    1

 Exchange-correlation functional for the present dataset will be:
  LDA: new Teter (4/93) with spin-polarized option - ixc=1
 Citation for XC functional:
  S. Goedecker, M. Teter, J. Huetter, PRB 54, 1703 (1996)

 Real(R)+Recip(G) space primitive vectors, cartesian coordinates (Bohr,Bohr^-1):
 R(1)= -2.7100000  2.7100000  2.7100000  G(1)=  0.0000000  0.1845018  0.1845018
 R(2)=  2.7100000 -2.7100000  2.7100000  G(2)=  0.1845018  0.0000000  0.1845018
 R(3)=  2.7100000  2.7100000 -2.7100000  G(3)=  0.1845018  0.1845018  0.0000000
 Unit cell volume ucvol=  7.9610044E+01 bohr^3
 Angles (23,13,12)=  1.09471221E+02  1.09471221E+02  1.09471221E+02 degrees

 getcut: wavevector=  0.0000  0.0000  0.0000  ngfft=  30  30  30
         ecut(hartree)=     50.000   => boxcut(ratio)=   2.00790

--- Pseudopotential description ------------------------------------------------
- pspini: atom type   1  psp file is 26fe.16.hgh
- pspatm: opening atomic psp file    26fe.16.hgh
- Hartwigsen-Goedecker-Hutter psp for Fe,  from PRB58, 3641 (1998)
- 26.00000  16.00000     10605                znucl, zion, pspdat
    3    1    2    0      2001   0.00000      pspcod,pspxc,lmax,lloc,mmax,r2well
 rloc=   0.3600000
 cc1 =   5.3925070; cc2 =  -0.0300660; cc3 =   0.0000000; cc4 =   0.0000000
 rrs =   0.2692680; h11s=  10.1937230; h22s=  -6.8349820; h33s=   0.0000000
 rrp =   0.2476860; h11p=   0.1456130; h22p=  -5.2349540; h33p=   0.0000000
                    k11p=   0.2014500; k22p=  -0.0758290; k33p=   0.0000000
 rrd =   0.2230210; h11d= -12.0269410; h22d=   0.0000000; h33d=   0.0000000
                    k11d=   0.0103220; k22d=   0.0000000; k33d=   0.0000000
-  Local part computed in reciprocal space.

 pspatm : COMMENT -
  the projectors are not normalized,
  so that the KB energies are not consistent with 
  definition in PRB44, 8503 (1991). 
  However, this does not influence the results obtained hereafter.
 pspatm: epsatm=   16.92502289
         --- l  ekb(1:nproj) -->
             0   -0.500862    0.733315
             1   -0.039838    0.006202
             2   -0.004680
 pspatm: atomic psp has been read  and splines computed

   2.70800366E+02                                ecore*ucvol(ha*bohr**3)
--------------------------------------------------------------------------------

P newkpt: treating     16 bands with npw=    1355 for ikpt=   1 by node    0
P newkpt: treating     16 bands with npw=    1351 for ikpt=   2 by node    0
P newkpt: treating     16 bands with npw=    1339 for ikpt=   3 by node    0
P newkpt: treating     16 bands with npw=    1342 for ikpt=   4 by node    0
P newkpt: treating     16 bands with npw=    1361 for ikpt=   5 by node    0
P newkpt: treating     16 bands with npw=    1346 for ikpt=   6 by node    0
P newkpt: treating     16 bands with npw=    1337 for ikpt=   7 by node    0
P newkpt: treating     16 bands with npw=    1360 for ikpt=   8 by node    0
P newkpt: treating     16 bands with npw=    1337 for ikpt=   9 by node    0
P newkpt: treating     16 bands with npw=    1345 for ikpt=  10 by node    0
P newkpt: treating     16 bands with npw=    1348 for ikpt=  11 by node    0
P newkpt: treating     16 bands with npw=    1347 for ikpt=  12 by node    0
P newkpt: treating     16 bands with npw=    1347 for ikpt=  13 by node    0
P newkpt: treating     16 bands with npw=    1345 for ikpt=  14 by node    0
P newkpt: treating     16 bands with npw=    1337 for ikpt=  15 by node    0
P newkpt: treating     16 bands with npw=    1331 for ikpt=  16 by node    0
P newkpt: treating     16 bands with npw=    1346 for ikpt=  17 by node    0
P newkpt: treating     16 bands with npw=    1365 for ikpt=  18 by node    0
P newkpt: treating     16 bands with npw=    1346 for ikpt=  19 by node    0
P newkpt: treating     16 bands with npw=    1336 for ikpt=  20 by node    0
P newkpt: treating     16 bands with npw=    1337 for ikpt=  21 by node    0
P newkpt: treating     16 bands with npw=    1343 for ikpt=  22 by node    0
P newkpt: treating     16 bands with npw=    1349 for ikpt=  23 by node    0
P newkpt: treating     16 bands with npw=    1345 for ikpt=  24 by node    0
P newkpt: treating     16 bands with npw=    1334 for ikpt=  25 by node    0
P newkpt: treating     16 bands with npw=    1320 for ikpt=  26 by node    0
P newkpt: treating     16 bands with npw=    1355 for ikpt=   1 by node    0
P newkpt: treating     16 bands with npw=    1351 for ikpt=   2 by node    0
P newkpt: treating     16 bands with npw=    1339 for ikpt=   3 by node    0
P newkpt: treating     16 bands with npw=    1342 for ikpt=   4 by node    0
P newkpt: treating     16 bands with npw=    1361 for ikpt=   5 by node    0
P newkpt: treating     16 bands with npw=    1346 for ikpt=   6 by node    0
P newkpt: treating     16 bands with npw=    1337 for ikpt=   7 by node    0
P newkpt: treating     16 bands with npw=    1360 for ikpt=   8 by node    0
P newkpt: treating     16 bands with npw=    1337 for ikpt=   9 by node    0
P newkpt: treating     16 bands with npw=    1345 for ikpt=  10 by node    0
P newkpt: treating     16 bands with npw=    1348 for ikpt=  11 by node    0
P newkpt: treating     16 bands with npw=    1347 for ikpt=  12 by node    0
P newkpt: treating     16 bands with npw=    1347 for ikpt=  13 by node    0
P newkpt: treating     16 bands with npw=    1345 for ikpt=  14 by node    0
P newkpt: treating     16 bands with npw=    1337 for ikpt=  15 by node    0
P newkpt: treating     16 bands with npw=    1331 for ikpt=  16 by node    0
P newkpt: treating     16 bands with npw=    1346 for ikpt=  17 by node    0
P newkpt: treating     16 bands with npw=    1365 for ikpt=  18 by node    0
P newkpt: treating     16 bands with npw=    1346 for ikpt=  19 by node    0
P newkpt: treating     16 bands with npw=    1336 for ikpt=  20 by node    0
P newkpt: treating     16 bands with npw=    1337 for ikpt=  21 by node    0
P newkpt: treating     16 bands with npw=    1343 for ikpt=  22 by node    0
P newkpt: treating     16 bands with npw=    1349 for ikpt=  23 by node    0
P newkpt: treating     16 bands with npw=    1345 for ikpt=  24 by node    0
P newkpt: treating     16 bands with npw=    1334 for ikpt=  25 by node    0
P newkpt: treating     16 bands with npw=    1320 for ikpt=  26 by node    0

_setup2: Arith. and geom. avg. npw (full set) are    1343.973    1343.953

================================================================================

     iter   Etot(hartree)     deltaE(h) residm    vres2    magn
 ETOT  1  -111.18826008607    -1.11E+02 3.53E-01 8.57E+04 2.000
 ETOT  2  -112.35097490575    -1.16E+00 1.72E-01 7.71E+04 0.135
 ETOT  3  -122.35490375443    -1.00E+01 6.56E-01 1.59E+03 1.952
 ETOT  4  -122.65942496224    -3.05E-01 5.80E-02 2.71E+02 1.820
 ETOT  5  -122.30370487027     3.56E-01 4.19E-02 2.25E+03 2.186
 ETOT  6  -122.67765305796    -3.74E-01 6.71E-03 4.55E+01 1.936
 ETOT  7  -122.67738547393     2.68E-04 1.87E-03 4.74E+01 1.934
 ETOT  8  -122.68597530194    -8.59E-03 2.64E-04 2.15E-01 1.983
 ETOT  9  -122.68588561607     8.97E-05 2.89E-05 1.22E+00 1.995
 ETOT 10  -122.68604473811    -1.59E-04 9.20E-06 3.83E-01 2.077
 ETOT 11  -122.68609813007    -5.34E-05 2.24E-06 2.28E-02 2.081
 ETOT 12  -122.68610187894    -3.75E-06 7.97E-07 9.69E-04 2.079
 ETOT 13  -122.68610208006    -2.01E-07 1.48E-06 1.05E-05 2.078
 ETOT 14  -122.68610207989     1.69E-10 3.59E-07 8.88E-06 2.077
 ETOT 15  -122.68610208152    -1.63E-09 9.41E-07 2.52E-08 2.077
 ETOT 16  -122.68610208155    -3.43E-11 2.34E-07 6.21E-10 2.077
 ETOT 17  -122.68610208155    -1.93E-12 6.02E-07 1.85E-14 2.077

 At SCF step   17, etot is converged : 
  for the second time, diff in etot=  1.933E-12 < toldfe=  1.000E-10

 Cartesian components of stress tensor (hartree/bohr^3)
  sigma(1 1)=  2.67061482E-02  sigma(3 2)=  0.00000000E+00
  sigma(2 2)=  2.67061482E-02  sigma(3 1)=  0.00000000E+00
  sigma(3 3)=  2.67061482E-02  sigma(2 1)=  0.00000000E+00

================================================================================

 ----iterations are completed or convergence reached----

 Mean square residual over all n,k,spin=   1.0701E-09; max=  6.0163E-07
   0.0625  0.0625  0.0625    1  3.25485E-13 kpt; spin; max resid(k); each band:
  1.34E-17 2.09E-17 2.48E-17 2.48E-17 3.54E-17 6.58E-17 6.58E-17 1.73E-17
  9.39E-17 9.39E-17 1.37E-16 1.37E-16 8.11E-17 9.76E-19 3.25E-13 3.21E-13
   0.1875  0.0625  0.0625    1  3.71731E-15 kpt; spin; max resid(k); each band:
  1.32E-17 2.36E-17 1.67E-17 2.80E-17 1.03E-16 1.14E-16 2.33E-16 1.21E-16
  6.89E-17 4.77E-17 3.06E-16 2.38E-16 1.37E-16 8.00E-17 3.38E-15 3.72E-15
   0.3125  0.0625  0.0625    1  6.01626E-07 kpt; spin; max resid(k); each band:
  1.29E-17 3.48E-17 1.62E-17 2.13E-17 4.57E-16 1.28E-16 4.52E-16 8.96E-17
  2.56E-17 1.81E-16 4.03E-16 2.25E-16 1.42E-16 1.62E-16 5.80E-16 6.02E-07
   0.4375  0.0625  0.0625    1  5.42157E-16 kpt; spin; max resid(k); each band:
  1.22E-17 3.60E-17 1.53E-17 2.29E-17 4.65E-16 1.33E-16 5.42E-16 7.76E-17
  2.28E-18 4.62E-16 2.46E-16 2.22E-16 1.25E-16 1.96E-16 3.64E-16 4.24E-16
  -0.0625  0.0625  0.0625    1  9.91592E-16 kpt; spin; max resid(k); each band:
  1.36E-17 2.24E-17 2.11E-17 2.11E-17 2.24E-17 3.89E-18 2.48E-17 2.48E-17
  9.30E-17 1.14E-16 9.77E-17 6.47E-17 6.47E-17 4.44E-16 9.11E-16 9.92E-16
   0.1875  0.1875  0.0625    1  1.60806E-14 kpt; spin; max resid(k); each band:
  1.23E-17 2.70E-17 1.77E-17 2.59E-17 2.48E-16 3.04E-16 1.95E-16 1.16E-16
  2.74E-17 1.73E-16 4.40E-16 2.94E-16 3.95E-16 1.46E-16 5.06E-15 1.61E-14
   0.3125  0.1875  0.0625    1  7.04655E-15 kpt; spin; max resid(k); each band:
  1.25E-17 3.07E-17 1.97E-17 2.37E-17 4.47E-16 2.34E-16 4.10E-16 8.18E-17
  2.47E-17 4.01E-16 3.47E-16 3.27E-16 3.40E-16 2.63E-16 4.05E-16 7.05E-15
  -0.1875  0.1875  0.0625    1  2.94208E-16 kpt; spin; max resid(k); each band:
  1.35E-17 2.56E-17 1.68E-17 2.31E-17 6.57E-17 5.92E-17 1.46E-16 1.25E-17
  1.60E-16 7.31E-17 2.94E-16 1.60E-16 1.17E-16 2.40E-16 1.08E-16 1.55E-16
   0.3125  0.3125  0.0625    1  1.10957E-14 kpt; spin; max resid(k); each band:
  1.22E-17 2.61E-17 2.61E-17 3.52E-17 2.18E-16 3.72E-16 3.72E-16 4.82E-17
  4.82E-17 4.49E-16 4.49E-16 2.20E-16 4.09E-16 3.20E-16 3.20E-16 1.11E-14
  -0.3125  0.3125  0.0625    1  3.41225E-16 kpt; spin; max resid(k); each band:
  1.29E-17 2.86E-17 1.49E-17 2.52E-17 2.57E-16 9.79E-17 3.41E-16 1.18E-16
  4.89E-17 8.28E-18 3.30E-16 1.13E-16 5.91E-17 1.00E-16 3.34E-16 1.86E-16
  -0.1875  0.3125  0.0625    1  6.51753E-16 kpt; spin; max resid(k); each band:
  1.28E-17 2.70E-17 1.83E-17 2.31E-17 1.32E-16 2.86E-16 1.16E-16 1.66E-16
  3.96E-17 6.14E-17 3.49E-16 2.88E-16 2.77E-16 2.52E-16 3.28E-16 6.52E-16
  -0.4375  0.4375  0.0625    1  4.68304E-16 kpt; spin; max resid(k); each band:
  1.27E-17 3.24E-17 1.42E-17 2.35E-17 4.68E-16 1.13E-16 3.65E-16 8.58E-17
  2.00E-16 1.84E-18 2.92E-16 7.32E-17 3.98E-17 1.09E-16 3.70E-16 2.98E-16
  -0.3125  0.4375  0.0625    1  4.45133E-15 kpt; spin; max resid(k); each band:
  1.25E-17 2.86E-17 1.66E-17 2.37E-17 4.27E-16 3.02E-16 3.05E-16 1.10E-16
  5.30E-17 1.95E-16 3.23E-16 3.03E-16 3.93E-16 3.98E-16 2.85E-16 4.45E-15
  -0.4375 -0.4375  0.0625    1  8.12041E-14 kpt; spin; max resid(k); each band:
  1.13E-17 2.89E-17 1.64E-17 2.44E-17 4.55E-16 1.59E-16 3.96E-16 1.00E-16
  7.30E-17 3.44E-16 2.56E-16 2.93E-16 3.18E-16 4.05E-16 3.07E-16 8.12E-14
  -0.3125 -0.4375  0.0625    1  1.15393E-15 kpt; spin; max resid(k); each band:
  1.49E-17 2.54E-17 1.98E-17 2.74E-17 3.60E-16 3.64E-16 3.53E-16 7.90E-17
  5.33E-17 3.29E-16 3.55E-16 2.19E-16 4.68E-16 2.86E-16 3.56E-16 1.15E-15
   0.1875  0.1875  0.1875    1  2.90835E-14 kpt; spin; max resid(k); each band:
  1.20E-17 2.58E-17 2.61E-17 2.61E-17 3.03E-16 2.57E-16 2.57E-16 3.53E-17
  3.53E-17 2.95E-16 5.72E-16 5.72E-16 4.13E-17 8.81E-18 1.92E-14 2.91E-14
   0.3125  0.1875  0.1875    1  4.69624E-11 kpt; spin; max resid(k); each band:
  1.18E-17 3.31E-17 2.64E-17 2.48E-17 4.13E-16 2.36E-16 4.17E-16 4.31E-17
  1.68E-18 6.18E-16 4.16E-16 2.60E-16 3.81E-16 1.41E-16 1.73E-15 4.70E-11
  -0.1875  0.1875  0.1875    1  1.07980E-15 kpt; spin; max resid(k); each band:
  1.29E-17 3.25E-17 1.83E-17 1.83E-17 5.94E-17 2.67E-16 7.80E-17 7.80E-17
  2.56E-18 2.60E-17 2.77E-16 1.12E-16 1.12E-16 1.08E-16 1.03E-15 1.08E-15
  -0.3125  0.3125  0.1875    1  2.72338E-15 kpt; spin; max resid(k); each band:
  1.25E-17 2.78E-17 1.52E-17 2.33E-17 2.50E-16 3.45E-16 9.25E-17 1.18E-16
  8.49E-18 5.58E-17 2.94E-16 8.83E-17 2.38E-16 2.49E-16 1.17E-16 2.72E-15
  -0.4375  0.4375  0.1875    1  4.01270E-15 kpt; spin; max resid(k); each band:
  1.23E-17 2.56E-17 1.42E-17 2.68E-17 4.51E-16 3.80E-16 1.01E-16 1.16E-16
  2.40E-18 1.83E-16 2.65E-16 6.55E-17 2.33E-16 2.96E-16 3.16E-15 4.01E-15
  -0.3125  0.4375  0.1875    1  4.41702E-16 kpt; spin; max resid(k); each band:
  1.67E-17 2.36E-17 1.42E-17 2.22E-17 4.14E-16 3.73E-16 1.53E-16 6.89E-17
  3.39E-17 1.75E-16 2.65E-16 2.00E-16 3.31E-16 3.38E-16 2.64E-16 4.42E-16
  -0.4375 -0.4375  0.1875    1  3.97783E-16 kpt; spin; max resid(k); each band:
  1.70E-17 2.14E-17 1.61E-17 2.21E-17 3.94E-16 3.98E-16 1.47E-16 6.66E-17
  2.96E-17 2.39E-16 2.20E-16 2.00E-16 3.00E-16 3.21E-16 2.00E-16 2.63E-16
  -0.3125  0.3125  0.3125    1  7.95436E-11 kpt; spin; max resid(k); each band:
  1.71E-17 2.75E-17 1.19E-17 1.19E-17 3.87E-16 3.83E-16 5.15E-17 5.15E-17
  1.53E-17 9.75E-17 6.27E-17 6.27E-17 3.87E-16 1.46E-16 3.27E-16 7.95E-11
  -0.4375  0.4375  0.3125    1  3.44323E-15 kpt; spin; max resid(k); each band:
  1.80E-17 1.88E-17 1.34E-17 1.72E-17 4.10E-16 4.09E-16 6.60E-17 6.15E-17
  3.55E-18 1.47E-16 1.56E-16 5.48E-17 3.43E-16 3.01E-16 1.64E-16 3.44E-15
  -0.4375 -0.4375  0.3125    1  4.48547E-16 kpt; spin; max resid(k); each band:
  1.90E-17 1.48E-17 1.48E-17 1.63E-17 4.20E-16 4.20E-16 8.10E-17 1.99E-17
  1.99E-17 1.38E-16 1.38E-16 1.03E-16 3.71E-16 3.71E-16 6.27E-17 4.49E-16
  -0.4375  0.4375  0.4375    1  4.38860E-16 kpt; spin; max resid(k); each band:
  1.96E-17 1.46E-17 1.21E-17 1.21E-17 4.30E-16 4.30E-16 1.84E-17 1.84E-17
  4.42E-18 7.58E-17 2.71E-17 2.71E-17 4.39E-16 3.51E-16 8.64E-17 2.04E-17
   0.0625  0.0625  0.0625    2  6.33973E-14 kpt; spin; max resid(k); each band:
  4.86E-16 7.50E-16 7.28E-16 7.28E-16 4.99E-16 1.25E-15 1.25E-15 1.35E-15
  2.73E-16 2.73E-16 1.50E-15 1.50E-15 2.10E-15 2.76E-19 6.34E-14 3.97E-14
   0.1875  0.0625  0.0625    2  4.68226E-15 kpt; spin; max resid(k); each band:
  5.32E-16 7.80E-16 7.07E-16 6.42E-16 7.51E-16 3.03E-15 2.58E-15 1.75E-15
  1.48E-15 2.32E-16 2.45E-15 1.89E-15 1.76E-15 1.21E-15 2.80E-15 4.68E-15
   0.3125  0.0625  0.0625    2  2.88492E-07 kpt; spin; max resid(k); each band:
  6.08E-16 7.74E-16 7.43E-16 3.95E-16 2.09E-15 3.54E-15 3.10E-15 1.24E-15
  1.24E-16 1.19E-15 3.10E-15 2.00E-15 1.36E-15 3.20E-15 2.32E-15 2.88E-07
   0.4375  0.0625  0.0625    2  3.92303E-15 kpt; spin; max resid(k); each band:
  6.04E-16 7.73E-16 7.61E-16 4.13E-16 2.90E-15 3.92E-15 2.20E-15 1.04E-15
  1.76E-17 1.78E-15 3.06E-15 2.04E-15 9.63E-16 3.33E-15 1.37E-15 8.00E-17
  -0.0625  0.0625  0.0625    2  2.61896E-15 kpt; spin; max resid(k); each band:
  4.59E-16 5.58E-16 7.68E-16 7.68E-16 4.58E-16 2.95E-17 1.67E-15 1.67E-15
  2.74E-16 2.45E-16 2.61E-16 7.79E-16 7.79E-16 9.01E-16 2.62E-15 2.55E-15
   0.1875  0.1875  0.0625    2  1.70419E-14 kpt; spin; max resid(k); each band:
  5.48E-16 7.78E-16 6.45E-16 5.44E-16 1.50E-15 2.99E-15 3.80E-15 1.22E-15
  2.67E-16 1.45E-15 2.94E-15 2.34E-15 1.94E-15 7.19E-16 5.12E-15 1.70E-14
   0.3125  0.1875  0.0625    2  3.65454E-15 kpt; spin; max resid(k); each band:
  5.85E-16 7.45E-16 7.05E-16 4.95E-16 2.97E-15 3.65E-15 3.12E-15 1.12E-15
  4.62E-16 2.61E-15 3.07E-15 2.60E-15 2.14E-15 1.41E-15 1.05E-15 2.90E-15
  -0.1875  0.1875  0.0625    2  2.51809E-15 kpt; spin; max resid(k); each band:
  5.15E-16 7.75E-16 7.28E-16 6.08E-16 5.46E-16 1.96E-15 2.41E-15 1.41E-15
  7.77E-16 1.83E-16 2.03E-15 6.64E-16 2.52E-15 1.33E-15 1.76E-15 5.92E-16
   0.3125  0.3125  0.0625    2  3.88990E-13 kpt; spin; max resid(k); each band:
  5.61E-16 6.74E-16 6.74E-16 7.14E-16 4.53E-15 3.03E-15 3.03E-15 9.42E-16
  9.42E-16 3.32E-15 3.32E-15 2.77E-15 2.64E-15 5.06E-16 5.05E-16 3.89E-13
  -0.3125  0.3125  0.0625    2  3.32884E-15 kpt; spin; max resid(k); each band:
  5.85E-16 7.72E-16 7.50E-16 5.78E-16 1.15E-15 3.33E-15 2.97E-15 1.46E-15
  9.90E-16 1.81E-16 2.79E-15 5.28E-16 2.34E-15 3.19E-15 8.51E-16 1.11E-15
  -0.1875  0.3125  0.0625    2  3.17124E-15 kpt; spin; max resid(k); each band:
  5.30E-16 7.52E-16 8.05E-16 6.29E-16 7.93E-16 2.91E-15 2.97E-15 1.55E-15
  1.12E-15 1.52E-16 2.38E-15 2.32E-15 1.18E-15 1.53E-15 3.17E-15 7.16E-16
  -0.4375  0.4375  0.0625    2  3.95547E-15 kpt; spin; max resid(k); each band:
  5.97E-16 7.77E-16 7.69E-16 4.57E-16 2.65E-15 3.96E-15 1.44E-15 1.26E-15
  4.76E-16 1.78E-16 3.11E-15 4.78E-16 1.53E-15 3.67E-15 9.56E-16 7.99E-16
  -0.3125  0.4375  0.0625    2  3.56114E-15 kpt; spin; max resid(k); each band:
  5.68E-16 7.50E-16 7.59E-16 5.88E-16 2.02E-15 3.24E-15 3.56E-15 1.79E-15
  1.24E-15 2.00E-15 2.89E-15 2.36E-15 9.21E-16 1.81E-15 2.37E-15 2.95E-15
  -0.4375 -0.4375  0.0625    2  4.44105E-14 kpt; spin; max resid(k); each band:
  5.18E-16 7.65E-16 7.66E-16 5.80E-16 2.71E-15 3.95E-15 1.53E-15 1.52E-15
  1.55E-15 2.52E-15 3.02E-15 2.19E-15 7.59E-16 2.80E-15 3.63E-16 4.44E-14
  -0.3125 -0.4375  0.0625    2  3.63468E-15 kpt; spin; max resid(k); each band:
  6.14E-16 7.46E-16 6.55E-16 8.68E-16 3.32E-15 2.25E-15 3.63E-15 1.86E-15
  1.59E-15 2.70E-15 2.82E-15 2.68E-15 1.54E-15 8.75E-16 1.16E-15 2.36E-15
   0.1875  0.1875  0.1875    2  7.72125E-15 kpt; spin; max resid(k); each band:
  5.65E-16 7.43E-16 5.15E-16 5.15E-16 2.53E-15 3.62E-15 3.62E-15 4.37E-16
  4.37E-16 2.35E-15 6.92E-16 3.68E-15 3.68E-15 1.75E-18 7.72E-15 4.97E-15
   0.3125  0.1875  0.1875    2  5.49401E-11 kpt; spin; max resid(k); each band:
  5.81E-16 6.83E-16 6.43E-16 5.32E-16 3.27E-15 3.45E-15 3.43E-15 5.39E-16
  9.63E-18 3.66E-15 3.26E-15 1.67E-15 3.65E-15 6.84E-16 1.50E-15 5.49E-11
  -0.1875  0.1875  0.1875    2  2.93225E-15 kpt; spin; max resid(k); each band:
  4.91E-16 6.46E-16 8.35E-16 8.35E-16 5.59E-16 2.63E-15 2.63E-15 7.88E-16
  3.68E-17 7.03E-17 7.88E-16 2.93E-15 2.93E-15 5.72E-16 1.24E-15 1.21E-15
  -0.3125  0.3125  0.1875    2  3.30014E-15 kpt; spin; max resid(k); each band:
  5.33E-16 7.05E-16 7.70E-16 7.42E-16 9.70E-16 1.93E-15 3.30E-15 2.51E-15
  9.15E-16 4.54E-16 2.63E-15 2.85E-15 8.14E-16 1.20E-15 2.62E-15 2.14E-15
  -0.4375  0.4375  0.1875    2  5.85766E-15 kpt; spin; max resid(k); each band:
  4.54E-16 7.48E-16 7.73E-16 8.49E-16 2.01E-15 1.18E-15 3.77E-15 1.98E-15
  2.02E-16 1.22E-15 2.89E-15 2.40E-15 8.23E-16 8.26E-16 5.86E-15 4.33E-15
  -0.3125  0.4375  0.1875    2  3.57576E-15 kpt; spin; max resid(k); each band:
  6.18E-16 7.83E-16 6.36E-16 8.58E-16 1.42E-15 1.47E-15 3.58E-15 2.21E-15
  1.30E-15 1.87E-15 2.56E-15 2.55E-15 1.17E-15 8.15E-16 1.57E-15 2.17E-15
  -0.4375 -0.4375  0.1875    2  3.79222E-15 kpt; spin; max resid(k); each band:
  6.41E-16 7.37E-16 6.95E-16 8.67E-16 1.68E-15 1.14E-15 3.79E-15 2.06E-15
  1.17E-15 2.02E-15 2.87E-15 2.32E-15 9.57E-16 6.87E-16 1.02E-15 2.73E-15
  -0.3125  0.3125  0.3125    2  3.38878E-11 kpt; spin; max resid(k); each band:
  6.01E-16 8.48E-16 6.28E-16 6.28E-16 8.92E-16 1.02E-15 2.23E-15 2.23E-15
  2.18E-15 9.18E-16 2.72E-15 2.72E-15 1.01E-15 6.98E-16 7.73E-16 3.39E-11
  -0.4375  0.4375  0.3125    2  4.65517E-15 kpt; spin; max resid(k); each band:
  6.29E-16 7.38E-16 7.39E-16 7.55E-16 1.08E-15 1.09E-15 2.98E-15 2.16E-15
  3.03E-16 1.38E-15 2.40E-15 2.32E-15 1.01E-15 9.02E-16 8.65E-16 4.66E-15
  -0.4375 -0.4375  0.3125    2  3.05680E-15 kpt; spin; max resid(k); each band:
  6.77E-16 7.06E-16 7.06E-16 8.02E-16 1.06E-15 1.06E-15 3.06E-15 9.04E-16
  9.04E-16 1.70E-15 1.70E-15 2.34E-15 9.91E-16 9.91E-16 8.47E-16 1.78E-15
  -0.4375  0.4375  0.4375    2  1.45851E-15 kpt; spin; max resid(k); each band:
  6.90E-16 7.25E-16 6.92E-16 6.92E-16 1.05E-15 1.06E-15 8.48E-16 8.48E-16
  4.64E-16 8.77E-16 1.46E-15 1.46E-15 1.06E-15 9.83E-16 7.77E-16 4.65E-16
 reduced coordinates (array xred) for    1 atoms
       0.000000000000      0.000000000000      0.000000000000
 rms dE/dt=  0.0000E+00; max dE/dt=  0.0000E+00; dE/dt below (all hartree)
    1       0.000000000000      0.000000000000      0.000000000000

 cartesian coordinates (angstrom) at end:
    1      0.00000000000000     0.00000000000000     0.00000000000000

 cartesian forces (hartree/bohr) at end:
    1     -0.00000000000000    -0.00000000000000    -0.00000000000000
 frms,max,avg= 0.0000000E+00 0.0000000E+00   0.000E+00  0.000E+00  0.000E+00 h/b

 cartesian forces (eV/Angstrom) at end:
    1     -0.00000000000000    -0.00000000000000    -0.00000000000000
 frms,max,avg= 0.0000000E+00 0.0000000E+00   0.000E+00  0.000E+00  0.000E+00 e/A
 length scales=  5.420000000000  5.420000000000  5.420000000000 bohr
              =  2.868140470558  2.868140470558  2.868140470558 angstroms
 prteigrs : about to open file Fe_e50_k4_noSO.o_DS1_EIG
 Fermi (or HOMO) energy (eV) =  12.24139   Average Vxc (eV)= -14.01188
 Eigenvalues (   eV  ) for nkpt=  26  k points, SPIN UP:
 kpt#   1, nband= 16, wtk=  0.01563, kpt=  0.0625  0.0625  0.0625 (reduced coord)
 -79.67341 -45.46545 -45.40437 -45.40437   3.71999   9.47232   9.47232  10.31936
  11.03318  11.03318  32.44509  32.44509  35.45927  36.39759  40.89783  40.89783
 kpt#   2, nband= 16, wtk=  0.04688, kpt=  0.1875  0.0625  0.0625 (reduced coord)
 -79.65075 -45.56331 -45.44352 -45.40231   5.31262   9.01150   9.18493  10.93323
  11.26857  11.43060  27.05538  30.08226  31.65258  37.06432  40.79766  41.91000
 kpt#   3, nband= 16, wtk=  0.04688, kpt=  0.3125  0.0625  0.0625 (reduced coord)
 -79.61301 -45.64841 -45.48637 -45.40294   6.85789   8.60351   9.67585  11.17239
  11.45872  12.92457  21.68661  28.30078  29.27270  36.92441  40.30120  45.05691
 kpt#   4, nband= 16, wtk=  0.02344, kpt=  0.4375  0.0625  0.0625 (reduced coord)
 -79.60859 -45.68764 -45.50481 -45.40354   7.07028   8.47256  10.68501  11.30298
  11.45279  13.90318  18.73101  27.65237  28.31660  36.81097  40.29285  44.67645
 kpt#   5, nband= 16, wtk=  0.01172, kpt= -0.0625  0.0625  0.0625 (reduced coord)
 -79.68793 -45.40896 -45.40593 -45.40593   3.12285   9.69552   9.75665   9.75665
  10.83372  11.07261  34.16786  35.37466  35.37466  38.19645  40.04382  40.04382
 kpt#   6, nband= 16, wtk=  0.04688, kpt=  0.1875  0.1875  0.0625 (reduced coord)
 -79.62635 -45.62494 -45.47359 -45.42515   6.96595   8.69874   8.80613  11.05639
  11.42374  13.08010  24.75050  24.96941  28.69372  38.83867  42.60842  44.60317
 kpt#   7, nband= 16, wtk=  0.09375, kpt=  0.3125  0.1875  0.0625 (reduced coord)
 -79.59917 -45.64528 -45.52410 -45.43144   7.76473   8.54429   9.39939  11.24662
  11.56854  15.20231  20.05117  23.58040  27.50395  39.35587  43.33679  45.33339
 kpt#   8, nband= 16, wtk=  0.04688, kpt= -0.1875  0.1875  0.0625 (reduced coord)
 -79.67413 -45.49210 -45.43439 -45.40513   4.28261   9.37111   9.51577  10.38307
  10.61858  11.32478  29.92061  32.97401  34.01105  37.59118  37.72132  38.98298
 kpt#   9, nband= 16, wtk=  0.01563, kpt=  0.3125  0.3125  0.0625 (reduced coord)
 -79.59478 -45.59259 -45.59259 -45.44247   8.14994   8.85550   8.85550  11.48277
  11.48277  18.46614  18.46614  20.19900  27.12748  41.54144  41.54144  48.78060
 kpt#  10, nband= 16, wtk=  0.04688, kpt= -0.3125  0.3125  0.0625 (reduced coord)
 -79.63078 -45.60400 -45.47200 -45.40181   6.06919   8.95978   9.44228  10.93858
  11.49963  11.66451  24.18016  30.54547  31.51871  36.52021  37.95237  40.68661
 kpt#  11, nband= 16, wtk=  0.04688, kpt= -0.1875  0.3125  0.0625 (reduced coord)
 -79.63834 -45.56554 -45.46518 -45.42265   5.77754   9.18010   9.36245  10.47211
  11.35035  11.66960  27.33422  27.73405  34.00988  34.51465  38.39338  42.29335
 kpt#  12, nband= 16, wtk=  0.04688, kpt= -0.4375  0.4375  0.0625 (reduced coord)
 -79.61791 -45.68391 -45.50179 -45.40299   6.94125   8.58305  10.23534  11.11152
  12.18382  12.62742  19.59854  29.13154  29.58851  36.07199  38.45792  42.33681
 kpt#  13, nband= 16, wtk=  0.09375, kpt= -0.3125  0.4375  0.0625 (reduced coord)
 -79.61824 -45.64255 -45.51178 -45.42738   7.21151   8.81637   9.25475  10.82346
  11.75299  13.15026  22.00697  25.65469  31.72770  35.56935  39.05479  43.24992
 kpt#  14, nband= 16, wtk=  0.04688, kpt= -0.4375 -0.4375  0.0625 (reduced coord)
 -79.60734 -45.67601 -45.53088 -45.42666   7.39470   8.79975   9.50466  10.97227
  12.18308  14.79700  18.74986  24.89563  30.88086  36.12374  39.80737  42.72608
 kpt#  15, nband= 16, wtk=  0.04688, kpt= -0.3125 -0.4375  0.0625 (reduced coord)
 -79.59130 -45.63862 -45.57310 -45.43565   8.15968   8.58042   9.03021  11.22690
  11.78729  16.04129  20.37135  21.02501  32.16596  35.92339  38.06986  44.69221
 kpt#  16, nband= 16, wtk=  0.01563, kpt=  0.1875  0.1875  0.1875 (reduced coord)
 -79.59230 -45.62943 -45.47817 -45.47817   8.38655   8.52627   8.52627  11.49680
  11.49680  15.34106  23.14567  23.14567  23.23450  43.17956  46.08658  46.08658
 kpt#  17, nband= 16, wtk=  0.02344, kpt=  0.3125  0.1875  0.1875 (reduced coord)
 -79.60871 -45.60478 -45.53711 -45.48379   8.26979   8.43529   8.96026  11.51123
  11.51848  17.71448  19.30945  22.54196  22.56276  44.34201  47.23511  47.97057
 kpt#  18, nband= 16, wtk=  0.01172, kpt= -0.1875  0.1875  0.1875 (reduced coord)
 -79.66681 -45.50508 -45.46508 -45.46508   5.32959   9.72626   9.75521   9.75521
  10.40566  11.55973  30.40016  30.82988  30.82988  32.12368  41.36330  41.36330
 kpt#  19, nband= 16, wtk=  0.04688, kpt= -0.3125  0.3125  0.1875 (reduced coord)
 -79.61885 -45.59192 -45.50268 -45.46853   6.84742   8.95433   9.69078  10.42731
  11.56621  12.21633  24.98451  28.13082  29.61707  33.11827  41.11178  42.55669
 kpt#  20, nband= 16, wtk=  0.04688, kpt= -0.4375  0.4375  0.1875 (reduced coord)
 -79.59002 -45.65969 -45.53149 -45.46416   7.57613   8.84159   9.47994  10.69093
  12.64927  14.23884  20.03784  26.34645  28.77765  35.81612  40.34264  40.64047
 kpt#  21, nband= 16, wtk=  0.04688, kpt= -0.3125  0.4375  0.1875 (reduced coord)
 -79.58930 -45.62915 -45.55482 -45.48361   7.81296   8.32608   9.82746  10.88034
  12.04715  14.26087  22.97492  23.13586  31.27830  32.00049  39.76068  42.46230
 kpt#  22, nband= 16, wtk=  0.04688, kpt= -0.4375 -0.4375  0.1875 (reduced coord)
 -79.59108 -45.64789 -45.58402 -45.48529   7.87668   8.25122   9.58317  11.17760
  12.35484  16.98790  19.09379  22.22872  31.04075  34.23073  36.70015  41.69310
 kpt#  23, nband= 16, wtk=  0.01172, kpt= -0.3125  0.3125  0.3125 (reduced coord)
 -79.60550 -45.58665 -45.54875 -45.54875   7.54410   8.32968  10.67201  10.67201
  11.37827  13.52823  25.14816  25.14816  28.52542  29.32098  40.79863  45.69593
 kpt#  24, nband= 16, wtk=  0.04688, kpt= -0.4375  0.4375  0.3125 (reduced coord)
 -79.58806 -45.63402 -45.57686 -45.55399   7.59167   7.77396  10.80677  11.15816
  12.45916  16.27757  20.91378  23.20890  28.39471  30.80546  35.96098  45.10530
 kpt#  25, nband= 16, wtk=  0.01563, kpt= -0.4375 -0.4375  0.3125 (reduced coord)
 -79.56510 -45.61769 -45.61769 -45.55990   7.52489   7.52489  10.95009  12.32455
  12.32455  19.56990  19.56990  20.40964  29.88179  29.88179  33.05341  45.54847
 kpt#  26, nband= 16, wtk=  0.01172, kpt= -0.4375  0.4375  0.4375 (reduced coord)
 -79.53823 -45.61085 -45.60484 -45.60484   7.28161   7.33399  12.31313  12.31313
  12.59644  18.76696  21.08472  21.08472  27.81730  28.62576  31.69394  47.95173
 Eigenvalues (   eV  ) for nkpt=  26  k points, SPIN DOWN:
 kpt#   1, nband= 16, wtk=  0.01563, kpt=  0.0625  0.0625  0.0625 (reduced coord)
 -76.95045 -42.83545 -42.76715 -42.76715   4.17010  11.29476  11.29476  12.23169
  13.53636  13.53636  33.03280  33.03280  36.41585  36.57989  41.51873  41.51873
 kpt#   2, nband= 16, wtk=  0.04688, kpt=  0.1875  0.0625  0.0625 (reduced coord)
 -76.92593 -42.94434 -42.81029 -42.76540   5.81671  10.76272  10.91178  13.30098
  13.45663  13.80025  27.96598  30.73580  32.52668  37.42305  41.60376  42.47029
 kpt#   3, nband= 16, wtk=  0.04688, kpt=  0.3125  0.0625  0.0625 (reduced coord)
 -76.88660 -43.03973 -42.85792 -42.76630   7.74776  10.29383  10.92018  13.55634
  14.02922  14.89985  22.86946  28.90722  30.07723  37.52564  41.12810  45.51570
 kpt#   4, nband= 16, wtk=  0.02344, kpt=  0.4375  0.0625  0.0625 (reduced coord)
 -76.88122 -43.08286 -42.87841 -42.76694   8.35040  10.13701  11.50730  13.69762
  14.04678  15.67956  20.21334  28.22791  29.06657  37.48972  41.15554  45.04001
 kpt#   5, nband= 16, wtk=  0.01172, kpt= -0.0625  0.0625  0.0625 (reduced coord)
 -76.96601 -42.77283 -42.76856 -42.76856   3.56672  11.57647  11.60975  11.60975
  13.33045  13.62366  34.51521  35.68084  35.68084  38.88979  40.96307  40.96307
 kpt#   6, nband= 16, wtk=  0.04688, kpt=  0.1875  0.1875  0.0625 (reduced coord)
 -76.90005 -43.01311 -42.84414 -42.79055   7.63730  10.34376  10.41667  13.48237
  13.96811  15.02063  25.75980  25.83682  29.46342  39.19573  43.23425  45.22360
 kpt#   7, nband= 16, wtk=  0.09375, kpt=  0.3125  0.1875  0.0625 (reduced coord)
 -76.87194 -43.03631 -42.90030 -42.79777   8.99807  10.12683  10.60690  13.67976
  14.09845  16.85894  21.27838  24.48601  28.25991  39.83695  43.80433  46.02129
 kpt#   8, nband= 16, wtk=  0.04688, kpt= -0.1875  0.1875  0.0625 (reduced coord)
 -76.95021 -42.86484 -42.79994 -42.76816   4.74566  11.18042  11.33363  12.31595
  13.00627  13.88029  30.70936  33.47320  34.73972  38.25587  38.42161  39.58254
 kpt#   9, nband= 16, wtk=  0.01563, kpt=  0.3125  0.3125  0.0625 (reduced coord)
 -76.86705 -42.97709 -42.97709 -42.81003   9.63082  10.21210  10.21210  13.95524
  13.95524  19.78566  19.78566  21.22204  27.92262  41.97419  41.97419  49.60879
 kpt#  10, nband= 16, wtk=  0.04688, kpt= -0.3125  0.3125  0.0625 (reduced coord)
 -76.90515 -42.98998 -42.84179 -42.76492   6.70161  10.70193  11.03314  13.21248
  13.70333  14.03166  25.24249  31.03063  32.36823  37.25599  38.72888  41.25287
 kpt#  11, nband= 16, wtk=  0.04688, kpt= -0.1875  0.3125  0.0625 (reduced coord)
 -76.91300 -42.94713 -42.83446 -42.78765   6.31759  10.97117  11.09435  12.72575
  13.36909  14.16091  28.29256  28.55596  34.69216  35.13181  39.07115  42.85460
 kpt#  12, nband= 16, wtk=  0.04688, kpt= -0.4375  0.4375  0.0625 (reduced coord)
 -76.89075 -43.07893 -42.87443 -42.76602   8.12339  10.29078  11.37521  13.42374
  14.27882  14.78648  20.99468  29.57236  30.34751  36.90412  39.32861  42.81000
 kpt#  13, nband= 16, wtk=  0.09375, kpt= -0.3125  0.4375  0.0625 (reduced coord)
 -76.89121 -43.03286 -42.88595 -42.79273   8.15536  10.48646  10.81042  13.04029
  14.09381  15.10462  23.14650  26.54100  32.32892  36.27995  39.72502  43.93253
 kpt#  14, nband= 16, wtk=  0.04688, kpt= -0.4375 -0.4375  0.0625 (reduced coord)
 -76.87959 -43.06974 -42.90733 -42.79205   8.75661  10.48235  10.83830  13.23349
  14.39036  16.40244  20.17928  25.74827  31.45358  36.93034  40.30665  43.50061
 kpt#  15, nband= 16, wtk=  0.04688, kpt= -0.3125 -0.4375  0.0625 (reduced coord)
 -76.86349 -43.02832 -42.95492 -42.80199   9.49655  10.14486  10.57786  13.44169
  14.04336  17.59914  21.64409  22.01459  32.84888  36.53560  38.67795  45.63134
 kpt#  16, nband= 16, wtk=  0.01563, kpt=  0.1875  0.1875  0.1875 (reduced coord)
 -76.86539 -43.01835 -42.85015 -42.85015   9.28859  10.05966  10.05966  14.04514
  14.04514  17.05566  24.00457  24.16850  24.16850  43.37209  46.59129  46.59129
 kpt#  17, nband= 16, wtk=  0.02344, kpt=  0.3125  0.1875  0.1875 (reduced coord)
 -76.88072 -42.99023 -42.91504 -42.85616   9.63827   9.93039  10.23347  14.06334
  14.11902  19.02401  20.51744  23.36835  23.58283  44.65492  47.62588  48.56660
 kpt#  18, nband= 16, wtk=  0.01172, kpt= -0.1875  0.1875  0.1875 (reduced coord)
 -76.94152 -42.87987 -42.83367 -42.83367   5.83402  11.56858  11.56858  11.95715
  12.35140  14.10454  31.18535  31.70802  31.70802  32.72685  41.86142  41.86142
 kpt#  19, nband= 16, wtk=  0.04688, kpt= -0.3125  0.3125  0.1875 (reduced coord)
 -76.89215 -42.97637 -42.87585 -42.83848   7.58276  10.84765  11.47196  12.37879
  13.58915  14.49909  26.00006  29.02211  30.40062  33.83651  41.79322  43.17463
 kpt#  20, nband= 16, wtk=  0.04688, kpt= -0.4375  0.4375  0.1875 (reduced coord)
 -76.86218 -43.05207 -42.90774 -42.83379   8.89937  10.39950  11.23207  12.74715
  14.79315  15.85535  21.31880  27.16277  29.58081  36.48095  41.07850  41.45007
 kpt#  21, nband= 16, wtk=  0.04688, kpt= -0.3125  0.4375  0.1875 (reduced coord)
 -76.86118 -43.01775 -42.93377 -42.85527   8.97131  10.12704  11.58523  12.84020
  14.15683  15.97077  24.05746  24.09175  32.15083  32.70322  40.50824  43.28738
 kpt#  22, nband= 16, wtk=  0.04688, kpt= -0.4375 -0.4375  0.1875 (reduced coord)
 -76.86246 -43.03785 -42.96630 -42.85683   9.49429   9.84645  11.28041  13.19098
  14.45863  18.29138  20.34995  23.18326  31.86175  34.94437  37.53409  42.51271
 kpt#  23, nband= 16, wtk=  0.01172, kpt= -0.3125  0.3125  0.3125 (reduced coord)
 -76.87673 -42.97053 -42.92648 -42.92648   8.67084  10.24132  12.50626  12.50626
  13.43182  15.27738  26.01909  26.01909  29.69351  30.11056  41.65961  46.37203
 kpt#  24, nband= 16, wtk=  0.04688, kpt= -0.4375  0.4375  0.3125 (reduced coord)
 -76.85869 -43.02224 -42.95808 -42.93248   9.16277   9.54023  12.68272  13.03765
  14.58729  17.46860  21.90657  23.98657  29.52089  31.71361  36.88735  45.73482
 kpt#  25, nband= 16, wtk=  0.01563, kpt= -0.4375 -0.4375  0.3125 (reduced coord)
 -76.83557 -43.00402 -43.00402 -42.93919   9.23259   9.23259  12.79089  14.38516
  14.38516  20.51253  20.51253  21.25448  30.93922  30.93922  34.01444  46.15711
 kpt#  26, nband= 16, wtk=  0.01172, kpt= -0.4375  0.4375  0.4375 (reduced coord)
 -76.80865 -42.99679 -42.98968 -42.98968   9.01324   9.02691  14.35707  14.35707
  14.72476  19.52964  21.71921  21.71921  29.18391  29.82269  32.69455  48.43611
 Total charge density [el/Bohr^3]
,     Maximum=    3.6479E+00  at reduced coord.    0.8667    0.9333    0.9333
,Next maximum=    3.6479E+00  at reduced coord.    0.9333    0.8667    0.9333
,     Minimum=    1.7800E-02  at reduced coord.    0.0000    0.0000    0.0000
,Next minimum=    3.6324E-02  at reduced coord.    0.6000    0.5000    0.1000
,  Integrated=    1.6000E+01
 Spin up density      [el/Bohr^3]
,     Maximum=    2.1972E+00  at reduced coord.    0.0000    0.9000    0.9000
,Next maximum=    2.1972E+00  at reduced coord.    0.9000    0.0000    0.9000
,     Minimum=    8.9193E-03  at reduced coord.    0.0000    0.0000    0.0000
,Next minimum=    1.7275E-02  at reduced coord.    0.6333    0.5000    0.1333
,  Integrated=    9.0387E+00
 Spin down density    [el/Bohr^3]
,     Maximum=    1.6130E+00  at reduced coord.    0.8667    0.9667    0.9667
,Next maximum=    1.6130E+00  at reduced coord.    0.9667    0.8667    0.9667
,     Minimum=    8.8811E-03  at reduced coord.    0.0000    0.0000    0.0000
,Next minimum=    1.8903E-02  at reduced coord.    0.6000    0.5000    0.1000
,  Integrated=    6.9613E+00
 Magnetization (spin up - spin down) [el/Bohr^3]
,     Maximum=    7.7057E-01  at reduced coord.    0.0000    0.9000    0.9000
,Next maximum=    7.7057E-01  at reduced coord.    0.9000    0.0000    0.9000
,     Minimum=   -2.2959E-03  at reduced coord.    0.7333    0.5000    0.2333
,Next minimum=   -2.2959E-03  at reduced coord.    0.5000    0.7333    0.2333
,  Integrated=    2.0773E+00
 Relative magnetization (=zeta, between -1 and 1)
,     Maximum=    2.9594E-01  at reduced coord.    0.0000    0.7333    0.7333
,Next maximum=    2.9594E-01  at reduced coord.    0.7333    0.0000    0.7333
,     Minimum=   -6.0258E-02  at reduced coord.    0.7333    0.4667    0.2333
,Next minimum=   -6.0258E-02  at reduced coord.    0.7667    0.5000    0.2333

--------------------------------------------------------------------------------
 Components of total free energy (in Hartree) :

    Kinetic energy  =  6.31959542760579E+01
    Hartree energy  =  3.15136265810122E+01
    XC energy       = -1.28000808280169E+01
    Ewald energy    = -8.59449965935601E+01
    PspCore energy  =  3.40158543545826E+00
    Loc. psp. energy= -1.03952265759570E+02
    NL   psp  energy= -1.80995445683012E+01
    >>>>> Internal E= -1.22685721456920E+02

    -kT*entropy     = -3.80624633289194E-04
    >>>>>>>>> Etotal= -1.22686102081553E+02

 Other information on the energy :
    Total energy(eV)= -3.33845861802828E+03 ; Band energy (Ha)=  -1.2666121448E+01
--------------------------------------------------------------------------------

 Cartesian components of stress tensor (hartree/bohr^3)
  sigma(1 1)=  2.67061482E-02  sigma(3 2)=  0.00000000E+00
  sigma(2 2)=  2.67061482E-02  sigma(3 1)=  0.00000000E+00
  sigma(3 3)=  2.67061482E-02  sigma(2 1)=  0.00000000E+00

-Cartesian components of stress tensor (GPa)         [Pressure= -7.8572E+02 GPa]
- sigma(1 1)=  7.85721875E+02  sigma(3 2)=  0.00000000E+00
- sigma(2 2)=  7.85721875E+02  sigma(3 1)=  0.00000000E+00
- sigma(3 3)=  7.85721875E+02  sigma(2 1)=  0.00000000E+00

================================================================================
== DATASET  2 ==================================================================
-   nproc =    1

 mkfilename : getden/=0, take file _DEN from output of DATASET   1.

 Exchange-correlation functional for the present dataset will be:
  LDA: new Teter (4/93) with spin-polarized option - ixc=1
 Citation for XC functional:
  S. Goedecker, M. Teter, J. Huetter, PRB 54, 1703 (1996)

 Real(R)+Recip(G) space primitive vectors, cartesian coordinates (Bohr,Bohr^-1):
 R(1)= -2.7100000  2.7100000  2.7100000  G(1)=  0.0000000  0.1845018  0.1845018
 R(2)=  2.7100000 -2.7100000  2.7100000  G(2)=  0.1845018  0.0000000  0.1845018
 R(3)=  2.7100000  2.7100000 -2.7100000  G(3)=  0.1845018  0.1845018  0.0000000
 Unit cell volume ucvol=  7.9610044E+01 bohr^3
 Angles (23,13,12)=  1.09471221E+02  1.09471221E+02  1.09471221E+02 degrees

 getcut: wavevector=  0.0000  0.0000  0.0000  ngfft=  30  30  30
         ecut(hartree)=     50.000   => boxcut(ratio)=   2.00790
--------------------------------------------------------------------------------

P newkpt: treating     15 bands with npw=    1358 for ikpt=   1 by node    0
P newkpt: treating     15 bands with npw=    1334 for ikpt=   2 by node    0
P newkpt: treating     15 bands with npw=    1353 for ikpt=   3 by node    0
P newkpt: treating     15 bands with npw=    1350 for ikpt=   4 by node    0
P newkpt: treating     15 bands with npw=    1340 for ikpt=   5 by node    0
P newkpt: treating     15 bands with npw=    1332 for ikpt=   6 by node    0
P newkpt: treating     15 bands with npw=    1358 for ikpt=   1 by node    0
P newkpt: treating     15 bands with npw=    1334 for ikpt=   2 by node    0
P newkpt: treating     15 bands with npw=    1353 for ikpt=   3 by node    0
P newkpt: treating     15 bands with npw=    1350 for ikpt=   4 by node    0
P newkpt: treating     15 bands with npw=    1340 for ikpt=   5 by node    0
P newkpt: treating     15 bands with npw=    1332 for ikpt=   6 by node    0


================================================================================
 prteigrs : about to open file Fe_e50_k4_noSO.o_DS2_EIG

 SPIN UP channel
 Non-SCF case, kpt    1 (  0.12500  0.12500  0.12500), residuals and eigenvalues=
  1.81E-17  2.40E-17  9.13E-17  9.65E-18  1.80E-17  3.21E-17  1.45E-17  2.06E-15
  2.85E-15  1.47E-15  3.31E-17  3.87E-17  4.92E-17  8.08E-13  3.74E-04
 -2.9272E+00 -1.6756E+00 -1.6697E+00 -1.6697E+00  2.2232E-01  3.2245E-01
  3.2245E-01  4.0847E-01  4.0847E-01  4.4723E-01  1.0034E+00  1.0034E+00
  1.0437E+00  1.4312E+00  1.6190E+00
  prteigrs : nnsclo,ikpt=  300    1 max resid (incl. the buffer)=  3.74446E-04
 Non-SCF case, kpt    2 (  0.37500  0.12500  0.12500), residuals and eigenvalues=
  1.70E-17  6.49E-17  3.87E-17  1.08E-17  8.25E-18  3.17E-17  8.70E-17  6.42E-17
  5.72E-17  6.63E-17  2.53E-17  5.29E-17  2.21E-17  2.05E-11  5.14E-05
 -2.9250E+00 -1.6777E+00 -1.6728E+00 -1.6697E+00  2.8100E-01  3.1180E-01
  3.5882E-01  4.2009E-01  4.2440E-01  5.7907E-01  6.9375E-01  9.2596E-01
  9.2890E-01  1.4770E+00  1.6272E+00
  prteigrs : nnsclo,ikpt=  300    2 max resid (incl. the buffer)=  5.13713E-05
 Non-SCF case, kpt    3 ( -0.12500  0.12500  0.12500), residuals and eigenvalues=
  6.98E-17  4.58E-17  1.15E-17  1.10E-17  2.34E-17  1.71E-16  2.86E-16  1.44E-15
  1.43E-15  3.75E-15  4.43E-13  1.08E-11  2.34E-10  3.31E-11  5.43E-11
 -2.9277E+00 -1.6702E+00 -1.6694E+00 -1.6694E+00  1.4742E-01  3.5813E-01
  3.5813E-01  3.6803E-01  3.8494E-01  4.1849E-01  1.1800E+00  1.2392E+00
  1.2392E+00  1.2809E+00  1.4575E+00
  prteigrs : nnsclo,ikpt=  300    3 max resid (incl. the buffer)=  2.34068E-10
 Non-SCF case, kpt    4 ( -0.37500  0.37500  0.12500), residuals and eigenvalues=
  7.91E-17  6.81E-17  9.68E-17  5.93E-17  5.64E-18  1.55E-16  2.47E-17  5.87E-15
  7.08E-15  2.82E-16  4.49E-16  8.30E-15  1.09E-16  1.28E-09  3.82E-08
 -2.9261E+00 -1.6774E+00 -1.6722E+00 -1.6695E+00  2.5665E-01  3.3247E-01
  3.3976E-01  3.9569E-01  4.4694E-01  4.5245E-01  8.0300E-01  1.0562E+00
  1.0805E+00  1.3650E+00  1.4066E+00
  prteigrs : nnsclo,ikpt=  300    4 max resid (incl. the buffer)=  3.82032E-08
 Non-SCF case, kpt    5 ( -0.37500 -0.37500  0.12500), residuals and eigenvalues=
  1.52E-17  1.91E-17  3.18E-17  1.63E-17  4.28E-17  4.90E-17  3.22E-17  4.41E-16
  2.00E-15  8.85E-17  2.14E-16  2.61E-17  2.75E-13  4.06E-14  8.11E-13
 -2.9248E+00 -1.6764E+00 -1.6764E+00 -1.6705E+00  3.0902E-01  3.0902E-01
  3.2698E-01  4.2768E-01  4.2768E-01  6.7905E-01  6.7905E-01  7.4487E-01
  1.2688E+00  1.2814E+00  1.2814E+00
  prteigrs : nnsclo,ikpt=  300    5 max resid (incl. the buffer)=  8.11292E-13
 Non-SCF case, kpt    6 ( -0.37500  0.37500  0.37500), residuals and eigenvalues=
  4.66E-17  4.21E-17  1.10E-17  5.30E-18  4.83E-17  1.92E-17  1.59E-17  2.44E-17
  9.41E-17  1.85E-17  6.40E-17  2.34E-17  2.31E-15  5.60E-17  9.56E-15
 -2.9240E+00 -1.6761E+00 -1.6750E+00 -1.6750E+00  2.7524E-01  2.8423E-01
  4.2164E-01  4.2164E-01  4.4961E-01  5.8475E-01  8.3809E-01  8.3809E-01
  1.0326E+00  1.0624E+00  1.3112E+00
  prteigrs : nnsclo,ikpt=  300    6 max resid (incl. the buffer)=  9.55698E-15

 SPIN DOWN channel
 Non-SCF case, kpt    1 (  0.12500  0.12500  0.12500), residuals and eigenvalues=
  1.48E-17  3.05E-17  9.44E-17  1.15E-17  2.29E-17  4.82E-17  1.10E-17  4.94E-15
  1.96E-15  1.22E-15  2.13E-16  2.12E-16  4.33E-17  6.68E-13  2.68E-04
 -2.8271E+00 -1.5795E+00 -1.5729E+00 -1.5729E+00  2.4177E-01  3.8527E-01
  3.8527E-01  5.0022E-01  5.0022E-01  5.1959E-01  1.0345E+00  1.0345E+00
  1.0755E+00  1.4380E+00  1.6426E+00
  prteigrs : nnsclo,ikpt=  300    1 max resid (incl. the buffer)=  2.68440E-04
 Non-SCF case, kpt    2 (  0.37500  0.12500  0.12500), residuals and eigenvalues=
  1.47E-17  6.56E-17  4.42E-17  1.12E-17  2.40E-17  1.54E-17  8.31E-17  6.77E-17
  5.23E-17  8.80E-17  1.06E-17  4.52E-17  1.35E-17  3.35E-12  1.22E-06
 -2.8248E+00 -1.5818E+00 -1.5763E+00 -1.5729E+00  3.2943E-01  3.7012E-01
  3.9866E-01  5.1051E-01  5.1974E-01  6.3441E-01  7.4413E-01  9.5658E-01
  9.5797E-01  1.4934E+00  1.6550E+00
  prteigrs : nnsclo,ikpt=  300    2 max resid (incl. the buffer)=  1.21839E-06
 Non-SCF case, kpt    3 ( -0.12500  0.12500  0.12500), residuals and eigenvalues=
  4.88E-17  4.03E-17  4.02E-17  1.10E-17  1.38E-17  1.12E-16  4.04E-16  8.23E-16
  2.06E-15  6.65E-15  3.60E-13  7.35E-12  1.17E-10  5.46E-11  8.50E-11
 -2.8276E+00 -1.5735E+00 -1.5726E+00 -1.5726E+00  1.6414E-01  4.2536E-01
  4.2536E-01  4.3800E-01  4.7238E-01  5.1290E-01  1.2010E+00  1.2652E+00
  1.2652E+00  1.3042E+00  1.4794E+00
  prteigrs : nnsclo,ikpt=  300    3 max resid (incl. the buffer)=  1.17429E-10
 Non-SCF case, kpt    4 ( -0.37500  0.37500  0.12500), residuals and eigenvalues=
  7.49E-17  8.69E-17  9.18E-17  7.80E-17  2.33E-17  6.79E-17  2.33E-17  5.07E-15
  1.27E-14  4.36E-15  3.55E-15  6.15E-14  1.27E-15  1.67E-08  1.40E-07
 -2.8259E+00 -1.5815E+00 -1.5756E+00 -1.5727E+00  2.9121E-01  3.9632E-01
  3.9696E-01  4.7488E-01  5.2408E-01  5.3269E-01  8.4630E-01  1.0869E+00
  1.1032E+00  1.3896E+00  1.4343E+00
  prteigrs : nnsclo,ikpt=  300    4 max resid (incl. the buffer)=  1.40227E-07
 Non-SCF case, kpt    5 ( -0.37500 -0.37500  0.12500), residuals and eigenvalues=
  7.36E-17  1.52E-17  2.33E-17  1.33E-17  1.40E-17  1.72E-17  9.85E-18  8.25E-16
  2.14E-15  4.82E-16  3.26E-16  3.93E-17  2.38E-13  2.79E-14  3.75E-14
 -2.8246E+00 -1.5804E+00 -1.5804E+00 -1.5738E+00  3.6700E-01  3.6700E-01
  3.8478E-01  5.0576E-01  5.0576E-01  7.2769E-01  7.2769E-01  7.8303E-01
  1.2953E+00  1.3062E+00  1.3062E+00
  prteigrs : nnsclo,ikpt=  300    5 max resid (incl. the buffer)=  2.38071E-13
[...]
                       1.000000  1.000000  1.000000  0.000000  0.000000  0.000000
                       0.000000  0.000000  0.000000  0.000000
                       1.000000  1.000000  1.000000  1.000000  1.000000  1.000000
                       1.000000  1.000000  1.000000  0.000000  0.000000  0.000000
                       0.000000  0.000000  0.000000  0.000000
                       1.000000  1.000000  1.000000  1.000000  1.000000  1.000000
                       1.000000  1.000000  1.000000  1.000000  0.000000  0.000000
                       0.000000  0.000000  0.000000  0.000000
                       1.000000  1.000000  1.000000  1.000000  1.000000  1.000000
                       1.000000  1.000000  1.000000  0.000000  0.000000  0.000000
                       0.000000  0.000000  0.000000  0.000000
                       1.000000  1.000000  1.000000  1.000000  1.000000  1.000000
                       1.000000  1.000000  1.000000  0.000000  0.000000  0.000000
                       0.000000  0.000000  0.000000  0.000000
                       1.000000  1.000000  1.000000  1.000000  1.000000  1.000000
                       1.000000  1.000000  1.000000  1.000000  0.000000  0.000000
                       0.000000  0.000000  0.000000  0.000000
                       1.000000  1.000000  1.000000  1.000000  1.000000  1.000000
                       1.000000  1.000000  1.000000  0.000000  0.000000  0.000000
                       0.000000  0.000000  0.000000  0.000000
                       1.000000  1.000000  1.000000  1.000000  1.000000  1.000000
                       1.000000  1.000000  1.000000  1.000000  0.000000  0.000000
                       0.000000  0.000000  0.000000  0.000000
                       1.000000  1.000000  1.000000  1.000000  1.000000  1.000000
                       1.000000  1.000000  1.000000  1.000000  0.000000  0.000000
                       0.000000  0.000000  0.000000  0.000000
                       1.000000  1.000000  1.000000  1.000000  1.000000  1.000000
                       1.000000  1.000000  0.725211  0.000030  0.000000  0.000000
                       0.000000  0.000000  0.000000  0.000000
                       1.000000  1.000000  1.000000  1.000000  1.000000  1.000000
                       1.000000  1.000000  1.000000  0.000000  0.000000  0.000000
                       0.000000  0.000000  0.000000  0.000000
                       1.000000  1.000000  1.000000  1.000000  1.000000  1.000000
                       1.000000  1.000000  0.727787  0.000000  0.000000  0.000000
                       0.000000  0.000000  0.000000  0.000000
                       1.000000  1.000000  1.000000  1.000000  1.000000  1.000000
                       1.000000  1.000000  0.999999  0.000000  0.000000  0.000000
                       0.000000  0.000000  0.000000  0.000000
                       1.000000  1.000000  1.000000  1.000000  1.000000  1.000000
                       1.000000  1.000000  1.000000  0.000000  0.000000  0.000000
                       0.000000  0.000000  0.000000  0.000000
                       1.000000  1.000000  1.000000  1.000000  1.000000  1.000000
                       1.000000  1.000000  1.000000  0.000000  0.000000  0.000000
                       0.000000  0.000000  0.000000  0.000000
                       1.000000  1.000000  1.000000  1.000000  1.000000  1.000000
                       1.000000  1.000000  1.000000  1.000000  0.000000  0.000000
                       0.000000  0.000000  0.000000  0.000000
                       1.000000  1.000000  1.000000  1.000000  1.000000  1.000000
                       1.000000  1.000000  1.000000  0.602747  0.000000  0.000000
                       0.000000  0.000000  0.000000  0.000000
                       1.000000  1.000000  1.000000  1.000000  1.000000  1.000000
                       1.000000  1.000000  0.000011  0.000000  0.000000  0.000000
                       0.000000  0.000000  0.000000  0.000000
                       1.000000  1.000000  1.000000  1.000000  1.000000  1.000000
                       1.000000  1.000000  0.978259  0.000000  0.000000  0.000000
                       0.000000  0.000000  0.000000  0.000000
                       1.000000  1.000000  1.000000  1.000000  1.000000  1.000000
                       1.000000  1.000000  0.119152  0.000000  0.000000  0.000000
                       0.000000  0.000000  0.000000  0.000000
                       1.000000  1.000000  1.000000  1.000000  1.000000  1.000000
                       1.000000  1.000000  1.000000  0.000000  0.000000  0.000000
                       0.000000  0.000000  0.000000  0.000000
                       1.000000  1.000000  1.000000  1.000000  1.000000  1.000000
                       1.000000  1.000000  0.011802  0.000000  0.000000  0.000000
                       0.000000  0.000000  0.000000  0.000000
                       1.000000  1.000000  1.000000  1.000000  1.000000  1.000000
                       1.000000  0.193700  0.193700  0.000000  0.000000  0.000000
                       0.000000  0.000000  0.000000  0.000000
                       1.000000  1.000000  1.000000  1.000000  1.000000  1.000000
                       0.227935  0.227935  0.000112  0.000000  0.000000  0.000000
                       0.000000  0.000000  0.000000  0.000000
                       1.000000  1.000000  1.000000  1.000000  1.000000  1.000000
                       1.000000  0.540150  0.000000  0.000000  0.000000  0.000000
                       0.000000  0.000000  0.000000  0.000000
                       1.000000  1.000000  1.000000  1.000000  1.000000  1.000000
                       1.000000  0.000000  0.000000  0.000000  0.000000  0.000000
                       0.000000  0.000000  0.000000  0.000000
                       1.000000  1.000000  1.000000  1.000000  1.000000  1.000000
                       1.000000  0.000000  0.000000  0.000000  0.000000  0.000000
                       0.000000  0.000000  0.000000  0.000000
                       1.000000  1.000000  1.000000  1.000000  1.000000  1.000000
                       1.000000  0.000000  0.000000  0.000000  0.000000  0.000000
                       0.000000  0.000000  0.000000  0.000000
                       1.000000  1.000000  1.000000  1.000000  1.000000  1.000000
                       1.000000  1.000000  0.000000  0.000000  0.000000  0.000000
                       0.000000  0.000000  0.000000  0.000000
                       1.000000  1.000000  1.000000  1.000000  1.000000  1.000000
                       1.000000  0.000000  0.000000  0.000000  0.000000  0.000000
                       0.000000  0.000000  0.000000  0.000000
                       1.000000  1.000000  1.000000  1.000000  1.000000  1.000000
                       1.000000  0.000000  0.000000  0.000000  0.000000  0.000000
                       0.000000  0.000000  0.000000  0.000000
                       1.000000  1.000000  1.000000  1.000000  1.000000  1.000000
                       1.000000  0.219182  0.000000  0.000000  0.000000  0.000000
                       0.000000  0.000000  0.000000  0.000000
                       1.000000  1.000000  1.000000  1.000000  1.000000  1.000000
                       1.000000  0.000000  0.000000  0.000000  0.000000  0.000000
                       0.000000  0.000000  0.000000  0.000000
                       1.000000  1.000000  1.000000  1.000000  1.000000  1.000000
                       1.000000  0.000000  0.000000  0.000000  0.000000  0.000000
                       0.000000  0.000000  0.000000  0.000000
                       1.000000  1.000000  1.000000  1.000000  1.000000  1.000000
                       1.000000  0.000000  0.000000  0.000000  0.000000  0.000000
                       0.000000  0.000000  0.000000  0.000000
                       1.000000  1.000000  1.000000  1.000000  1.000000  1.000000
                       1.000000  0.000000  0.000000  0.000000  0.000000  0.000000
                       0.000000  0.000000  0.000000  0.000000
                       1.000000  1.000000  1.000000  1.000000  1.000000  1.000000
                       1.000000  0.000000  0.000000  0.000000  0.000000  0.000000
                       0.000000  0.000000  0.000000  0.000000
                       1.000000  1.000000  1.000000  1.000000  1.000000  1.000000
                       1.000000  0.000000  0.000000  0.000000  0.000000  0.000000
                       0.000000  0.000000  0.000000  0.000000
                       1.000000  1.000000  1.000000  1.000000  1.000000  1.000000
                       1.000000  0.000000  0.000000  0.000000  0.000000  0.000000
                       0.000000  0.000000  0.000000  0.000000
                       1.000000  1.000000  1.000000  1.000000  1.000000  1.000000
                       1.000000  0.000000  0.000000  0.000000  0.000000  0.000000
                       0.000000  0.000000  0.000000  0.000000
                       1.000000  1.000000  1.000000  1.000000  1.000000  1.000000
                       1.000000  0.000000  0.000000  0.000000  0.000000  0.000000
                       0.000000  0.000000  0.000000  0.000000
                       1.000000  1.000000  1.000000  1.000000  1.000000  1.000000
                       1.000000  0.998434  0.126426  0.000000  0.000000  0.000000
                       0.000000  0.000000  0.000000  0.000000
                       1.000000  1.000000  1.000000  1.000000  1.000000  1.000000
                       1.000000  0.076615  0.000000  0.000000  0.000000  0.000000
                       0.000000  0.000000  0.000000  0.000000
                       1.000000  1.000000  1.000000  1.000000  1.000000  1.000000
                       1.000000  0.000000  0.000000  0.000000  0.000000  0.000000
                       0.000000  0.000000  0.000000  0.000000
                       1.000000  1.000000  1.000000  1.000000  1.000000  1.000000
                       1.000000  0.000000  0.000000  0.000000  0.000000  0.000000
                       0.000000  0.000000  0.000000  0.000000
                       1.000000  1.000000  1.000000  1.000000  1.000000  1.000000
                       1.000000  0.000000  0.000000  0.000000  0.000000  0.000000
                       0.000000  0.000000  0.000000  0.000000
                       1.000000  1.000000  1.000000  1.000000  1.000000  1.000000
                       0.002951  0.002951  0.000000  0.000000  0.000000  0.000000
                       0.000000  0.000000  0.000000  0.000000
                       1.000000  1.000000  1.000000  1.000000  1.000000  1.000000
                       0.000002  0.000000  0.000000  0.000000  0.000000  0.000000
                       0.000000  0.000000  0.000000  0.000000
                       1.000000  1.000000  1.000000  1.000000  1.000000  1.000000
                       0.000000  0.000000  0.000000  0.000000  0.000000  0.000000
                       0.000000  0.000000  0.000000  0.000000
                       1.000000  1.000000  1.000000  1.000000  1.000000  1.000000
                       0.000000  0.000000  0.000000  0.000000  0.000000  0.000000
                       0.000000  0.000000  0.000000  0.000000
           occopt           7
            rprim     -5.0000000000E-01  5.0000000000E-01  5.0000000000E-01
                       5.0000000000E-01 -5.0000000000E-01  5.0000000000E-01
                       5.0000000000E-01  5.0000000000E-01 -5.0000000000E-01
           shiftk      5.00000000E-01  5.00000000E-01  5.00000000E-01
           so_psp           0
          spgroup         229
           spinat      0.0000000000E+00  0.0000000000E+00  5.0000000000E+00
           strten1     2.6706148222E-02  2.6706148222E-02  2.6706148222E-02
                       0.0000000000E+00  0.0000000000E+00  0.0000000000E+00
        symmorphi1          1
        symmorphi2          0
        symmorphi3          1
        symmorphi4          1
        symmorphi5          1
        symmorphi6          1
           symrel      1  0  0   0  1  0   0  0  1      -1  0  0   0 -1  0   0  0 -1
                      -1 -1 -1   0  0  1   0  1  0       1  1  1   0  0 -1   0 -1  0
                       0  1  0   1  0  0  -1 -1 -1       0 -1  0  -1  0  0   1  1  1
                       0  0  1  -1 -1 -1   1  0  0       0  0 -1   1  1  1  -1  0  0
                       0  1  0   1  0  0   0  0  1       0 -1  0  -1  0  0   0  0 -1
                      -1 -1 -1   0  0  1   1  0  0       1  1  1   0  0 -1  -1  0  0
                       1  0  0   0  1  0  -1 -1 -1      -1  0  0   0 -1  0   1  1  1
                       0  0  1  -1 -1 -1   0  1  0       0  0 -1   1  1  1   0 -1  0
                      -1 -1 -1   1  0  0   0  0  1       1  1  1  -1  0  0   0  0 -1
                       0  1  0   0  0  1   1  0  0       0 -1  0   0  0 -1  -1  0  0
                       1  0  0  -1 -1 -1   0  1  0      -1  0  0   1  1  1   0 -1  0
                       0  0  1   0  1  0  -1 -1 -1       0  0 -1   0 -1  0   1  1  1
                       1  0  0  -1 -1 -1   0  0  1      -1  0  0   1  1  1   0  0 -1
                       0  1  0   0  0  1  -1 -1 -1       0 -1  0   0  0 -1   1  1  1
                      -1 -1 -1   1  0  0   0  1  0       1  1  1  -1  0  0   0 -1  0
                       0  0  1   0  1  0   1  0  0       0  0 -1   0 -1  0  -1  0  0
                       0  1  0  -1 -1 -1   0  0  1       0 -1  0   1  1  1   0  0 -1
                       1  0  0   0  0  1  -1 -1 -1      -1  0  0   0  0 -1   1  1  1
                      -1 -1 -1   0  1  0   1  0  0       1  1  1   0 -1  0  -1  0  0
                       0  0  1   1  0  0   0  1  0       0  0 -1  -1  0  0   0 -1  0
                      -1 -1 -1   0  1  0   0  0  1       1  1  1   0 -1  0   0  0 -1
                       1  0  0   0  0  1   0  1  0      -1  0  0   0  0 -1   0 -1  0
                       0  1  0  -1 -1 -1   1  0  0       0 -1  0   1  1  1  -1  0  0
                       0  0  1   1  0  0  -1 -1 -1       0  0 -1  -1  0  0   1  1  1
           toldfe1     1.00000000E-10 Hartree
           toldfe2     0.00000000E+00 Hartree
           toldfe3     0.00000000E+00 Hartree
           toldfe4     0.00000000E+00 Hartree
           toldfe5     0.00000000E+00 Hartree
           toldfe6     0.00000000E+00 Hartree
           tolwfr1     0.00000000E+00
           tolwfr2     1.00000000E-16
           tolwfr3     1.00000000E-16
           tolwfr4     1.00000000E-16
           tolwfr5     1.00000000E-16
           tolwfr6     1.00000000E-16
           tsmear      5.00000000E-03 Hartree
            typat      1
              wtk1       0.01563    0.04688    0.04688    0.02344    0.01172    0.04688
                         0.09375    0.04688    0.01563    0.04688    0.04688    0.04688
                         0.09375    0.04688    0.04688    0.01563    0.02344    0.01172
                         0.04688    0.04688    0.04688    0.04688    0.01172    0.04688
                         0.01563    0.01172
              wtk2       0.12500    0.18750    0.09375    0.37500    0.12500    0.09375
              wtk3       1.00000    1.00000    1.00000    1.00000    1.00000    1.00000
              wtk4       1.00000    1.00000    1.00000    1.00000    1.00000    1.00000
              wtk5       1.00000    1.00000    1.00000    1.00000    1.00000    1.00000
              wtk6       0.00195    0.00586    0.00586    0.00586    0.00586    0.00586
                         0.00586    0.00293    0.00146    0.00586    0.01172    0.01172
                         0.01172    0.01172    0.01172    0.00586    0.00586    0.01172
                         0.01172    0.01172    0.00586    0.00586    0.00586    0.00586
                         0.01172    0.01172    0.00586    0.01172    0.00586    0.00586
                         0.00586    0.01172    0.00586    0.00586    0.01172    0.01172
                         0.00586    0.01172    0.01172    0.00586    0.00586    0.01172
                         0.01172    0.01172    0.00586    0.01172    0.01172    0.00586
                         0.00586    0.01172
                       outvars : Printing only first  50 k-points.
            znucl       26.00000

================================================================================


- Timing analysis has been suppressed with timopt=0



================================================================================

 Suggested references for the acknowledgment of ABINIT usage.

 The users of ABINIT have little formal obligations with respect to the ABINIT group
 (those specified in the GNU General Public License, http://www.gnu.org/copyleft/gpl.txt).
 However, it is common practice in the scientific literature,
 to acknowledge the efforts of people that have made the research possible.
 In this spirit, please find below suggested citations of work written by ABINIT developers,
 corresponding to implementations inside of ABINIT that you have used in the present run.
 Note also that it will be of great value to readers of publications presenting these results,
 to read papers enabling them to understand the theoretical formalism and details
 of the ABINIT implementation.
 For information on why they are suggested, see also http://www.abinit.org/about/?text=acknowledgments.

 [1] ABINIT : First-principles approach of materials and nanosystem properties.
 X. Gonze, B. Amadon, P.-M. Anglade, J.-M. Beuken, F. Bottin, P. Boulanger, F. Bruneval,
 D. Caliste, R. Caracas, M. Cote, T. Deutsch, L. Genovese, Ph. Ghosez, M. Giantomassi
 S. Goedecker, D.R. Hamann, P. Hermet, F. Jollet, G. Jomard, S. Leroux, M. Mancini, S. Mazevet,
 M.J.T. Oliveira, G. Onida, Y. Pouillon, T. Rangel, G.-M. Rignanese, D. Sangalli, R. Shaltaf,
 M. Torrent, M.J. Verstraete, G. Zerah, J.W. Zwanziger
 Computer Phys. Comm. 180, 2582-2615 (2009).
 Comment : the third generic paper describing the ABINIT project.
 Note that a version of this paper, that is not formatted for Computer Phys. Comm. 
 is available at http://www.abinit.org/about/ABINIT_CPC_v10.pdf .
 The licence allows the authors to put it on the Web.

 [2] A brief introduction to the ABINIT software package.
 X. Gonze, G.-M. Rignanese, M. Verstraete, J.-M. Beuken, Y. Pouillon, R. Caracas, F. Jollet,
 M. Torrent, G. Zerah, M. Mikami, Ph. Ghosez, M. Veithen, J.-Y. Raty, V. Olevano, F. Bruneval,
 L. Reining, R. Godby, G. Onida, D.R. Hamann, and D.C. Allan.
 Z. Kristallogr. 220, 558-562 (2005).
 Comment : the second generic paper describing the ABINIT project. Note that this paper
 should be cited especially if you are using the GW part of ABINIT, as several authors
 of this part are not in the list of authors of the first or third paper.
 The .pdf of the latter paper is available at http://www.abinit.org/about/zfk_0505-06_558-562.pdf.
 Note that it should not redistributed (Copyright by Oldenburg Wissenshaftverlag,
 the licence allows the authors to put it on the Web).


 And optionally :

 [3] First-principles computation of material properties : the ABINIT software project. 
 X. Gonze, J.-M. Beuken, R. Caracas, F. Detraux, M. Fuchs, G.-M. Rignanese, L. Sindic,
 M. Verstraete, G. Zerah, F. Jollet, M. Torrent, A. Roy, M. Mikami, Ph. Ghosez, J.-Y. Raty, D.C. Allan.
 Computational Materials Science 25, 478-492 (2002). http://dx.doi.org/10.1016/S0927-0256(02)00325-7
 Comment : the original paper describing the ABINIT project.

 [4] Fast radix 2, 3, 4 and 5 kernels for Fast Fourier Transformations
 on computers with overlapping multiply-add instructions.
 S. Goedecker, SIAM J. on Scientific Computing 18, 1605 (1997).
-
- Proc.   0 individual time (sec): cpu=        907.2  wall=        261.6

================================================================================

 Calculation completed.
.Delivered   10 WARNINGs and  23 COMMENTs to log file.
+Overall time at end (sec) : cpu=        907.2  wall=        261.6
