<PP_INFO>
Generated using Fritz-Haber code                                                
Author: unknown    Generation date: as well                                     
Info: automatically converted from FHI format                                   
    1        The Pseudo was generated with a Scalar-Relativistic Calculation
  0.00000000000E+00    Local Potential cutoff radius
nl pn  l   occ               Rcut            Rcut US             E pseu
1s  0  0  1.25       .00000000000       .00000000000       .00000000000
</PP_INFO>


<PP_HEADER>
   0                   Version Number
  hn                   Element
   NC                  Norm - Conserving pseudopotential
    F                  Nonlinear Core Correction
 SLA  PZ   NOGX NOGC   PZ   Exchange-Correlation functional
    1.25000000000      Z valence
     .00000000000      Total energy
   .0000000   .0000000 Suggested cutoff for wfc and rho
   -1                  Max angular momentum component
  189                  Number of points in mesh
    1    0             Number of Wavefunctions, Number of Projectors
 Wavefunctions         nl  l   occ
                       1s  0  1.25
</PP_HEADER>


<PP_MESH>
  <PP_R>
  8.00000000000E-03  8.40000000000E-03  8.82000000000E-03  9.26100000000E-03
  9.72405000000E-03  1.02102525000E-02  1.07207651250E-02  1.12568033813E-02
  1.18196435503E-02  1.24106257278E-02  1.30311570142E-02  1.36827148649E-02
  1.43668506082E-02  1.50851931386E-02  1.58394527955E-02  1.66314254353E-02
  1.74629967071E-02  1.83361465424E-02  1.92529538695E-02  2.02156015630E-02
  2.12263816412E-02  2.22877007232E-02  2.34020857594E-02  2.45721900473E-02
  2.58007995497E-02  2.70908395272E-02  2.84453815036E-02  2.98676505787E-02
  3.13610331077E-02  3.29290847631E-02  3.45755390012E-02  3.63043159513E-02
  3.81195317488E-02  4.00255083363E-02  4.20267837531E-02  4.41281229407E-02
  4.63345290878E-02  4.86512555422E-02  5.10838183193E-02  5.36380092352E-02
  5.63199096970E-02  5.91359051818E-02  6.20927004409E-02  6.51973354630E-02
  6.84572022361E-02  7.18800623479E-02  7.54740654653E-02  7.92477687386E-02
  8.32101571755E-02  8.73706650343E-02  9.17391982860E-02  9.63261582003E-02
  1.01142466110E-01  1.06199589416E-01  1.11509568887E-01  1.17085047331E-01
  1.22939299698E-01  1.29086264682E-01  1.35540577917E-01  1.42317606812E-01
  1.49433487153E-01  1.56905161511E-01  1.64750419586E-01  1.72987940565E-01
  1.81637337594E-01  1.90719204473E-01  2.00255164697E-01  2.10267922932E-01
  2.20781319079E-01  2.31820385032E-01  2.43411404284E-01  2.55581974498E-01
  2.68361073223E-01  2.81779126884E-01  2.95868083229E-01  3.10661487390E-01
  3.26194561760E-01  3.42504289848E-01  3.59629504340E-01  3.77610979557E-01
  3.96491528535E-01  4.16316104961E-01  4.37131910210E-01  4.58988505720E-01
  4.81937931006E-01  5.06034827556E-01  5.31336568934E-01  5.57903397381E-01
  5.85798567250E-01  6.15088495612E-01  6.45842920393E-01  6.78135066413E-01
  7.12041819733E-01  7.47643910720E-01  7.85026106256E-01  8.24277411569E-01
  8.65491282147E-01  9.08765846255E-01  9.54204138567E-01  1.00191434550E+00
  1.05201006277E+00  1.10461056591E+00  1.15984109420E+00  1.21783314891E+00
  1.27872480636E+00  1.34266104668E+00  1.40979409901E+00  1.48028380396E+00
  1.55429799416E+00  1.63201289387E+00  1.71361353856E+00  1.79929421549E+00
  1.88925892627E+00  1.98372187258E+00  2.08290796621E+00  2.18705336452E+00
  2.29640603274E+00  2.41122633438E+00  2.53178765110E+00  2.65837703365E+00
  2.79129588534E+00  2.93086067960E+00  3.07740371358E+00  3.23127389926E+00
  3.39283759423E+00  3.56247947394E+00  3.74060344764E+00  3.92763362002E+00
  4.12401530102E+00  4.33021606607E+00  4.54672686937E+00  4.77406321284E+00
  5.01276637348E+00  5.26340469216E+00  5.52657492677E+00  5.80290367310E+00
  6.09304885676E+00  6.39770129960E+00  6.71758636458E+00  7.05346568281E+00
  7.40613896695E+00  7.77644591529E+00  8.16526821106E+00  8.57353162161E+00
  9.00220820269E+00  9.45231861283E+00  9.92493454347E+00  1.04211812706E+01
  1.09422403342E+01  1.14893523509E+01  1.20638199684E+01  1.26670109668E+01
  1.33003615152E+01  1.39653795909E+01  1.46636485705E+01  1.53968309990E+01
  1.61666725490E+01  1.69750061764E+01  1.78237564852E+01  1.87149443095E+01
  1.96506915250E+01  2.06332261012E+01  2.16648874063E+01  2.27481317766E+01
  2.38855383654E+01  2.50798152837E+01  2.63338060479E+01  2.76504963503E+01
  2.90330211678E+01  3.04846722262E+01  3.20089058375E+01  3.36093511294E+01
  3.52898186858E+01  3.70543096201E+01  3.89070251011E+01  4.08523763562E+01
  4.28949951740E+01  4.50397449327E+01  4.72917321793E+01  4.96563187883E+01
  5.21391347277E+01  5.47460914641E+01  5.74833960373E+01  6.03575658392E+01
  6.33754441311E+01  6.65442163377E+01  6.98714271546E+01  7.33649985123E+01
  7.70332484379E+01
  </PP_R>
  <PP_RAB>
  3.90321313355E-04  4.09837379023E-04  4.30329247974E-04  4.51845710373E-04
  4.74437995892E-04  4.98159895686E-04  5.23067890471E-04  5.49221284994E-04
  5.76682349244E-04  6.05516466706E-04  6.35792290041E-04  6.67581904543E-04
  7.00960999771E-04  7.36009049759E-04  7.72809502247E-04  8.11449977360E-04
  8.52022476227E-04  8.94623600039E-04  9.39354780041E-04  9.86322519043E-04
  1.03563864499E-03  1.08742057724E-03  1.14179160611E-03  1.19888118641E-03
  1.25882524573E-03  1.32176650802E-03  1.38785483342E-03  1.45724757509E-03
  1.53010995385E-03  1.60661545154E-03  1.68694622412E-03  1.77129353532E-03
  1.85985821209E-03  1.95285112269E-03  2.05049367883E-03  2.15301836277E-03
  2.26066928091E-03  2.37370274495E-03  2.49238788220E-03  2.61700727631E-03
  2.74785764012E-03  2.88525052213E-03  3.02951304824E-03  3.18098870065E-03
  3.34003813568E-03  3.50704004247E-03  3.68239204459E-03  3.86651164682E-03
  4.05983722916E-03  4.26282909062E-03  4.47597054515E-03  4.69976907240E-03
  4.93475752603E-03  5.18149540233E-03  5.44057017244E-03  5.71259868106E-03
  5.99822861512E-03  6.29814004587E-03  6.61304704817E-03  6.94369940058E-03
  7.29088437060E-03  7.65542858914E-03  8.03820001859E-03  8.44011001952E-03
  8.86211552050E-03  9.30522129652E-03  9.77048236135E-03  1.02590064794E-02
  1.07719568034E-02  1.13105546436E-02  1.18760823757E-02  1.24698864945E-02
  1.30933808192E-02  1.37480498602E-02  1.44354523532E-02  1.51572249709E-02
  1.59150862194E-02  1.67108405304E-02  1.75463825569E-02  1.84237016848E-02
  1.93448867690E-02  2.03121311074E-02  2.13277376628E-02  2.23941245460E-02
  2.35138307733E-02  2.46895223119E-02  2.59239984275E-02  2.72201983489E-02
  2.85812082663E-02  3.00102686797E-02  3.15107821136E-02  3.30863212193E-02
  3.47406372803E-02  3.64776691443E-02  3.83015526015E-02  4.02166302316E-02
  4.22274617432E-02  4.43388348303E-02  4.65557765718E-02  4.88835654004E-02
  5.13277436705E-02  5.38941308540E-02  5.65888373967E-02  5.94182792665E-02
  6.23891932298E-02  6.55086528913E-02  6.87840855359E-02  7.22232898127E-02
  7.58344543033E-02  7.96261770185E-02  8.36074858694E-02  8.77878601629E-02
  9.21772531710E-02  9.67861158296E-02  1.01625421621E-01  1.06706692702E-01
  1.12042027337E-01  1.17644128704E-01  1.23526335139E-01  1.29702651896E-01
  1.36187784491E-01  1.42997173716E-01  1.50147032401E-01  1.57654384021E-01
  1.65537103223E-01  1.73813958384E-01  1.82504656303E-01  1.91629889118E-01
  2.01211383574E-01  2.11271952753E-01  2.21835550390E-01  2.32927327910E-01
  2.44573694305E-01  2.56802379021E-01  2.69642497972E-01  2.83124622870E-01
  2.97280854014E-01  3.12144896714E-01  3.27752141550E-01  3.44139748628E-01
  3.61346736059E-01  3.79414072862E-01  3.98384776505E-01  4.18304015330E-01
  4.39219216097E-01  4.61180176902E-01  4.84239185747E-01  5.08451145034E-01
  5.33873702286E-01  5.60567387400E-01  5.88595756770E-01  6.18025544608E-01
  6.48926821839E-01  6.81373162931E-01  7.15441821077E-01  7.51213912131E-01
  7.88774607738E-01  8.28213338125E-01  8.69624005031E-01  9.13105205282E-01
  9.58760465546E-01  1.00669848882E+00  1.05703341327E+00  1.10988508393E+00
  1.16537933812E+00  1.22364830503E+00  1.28483072028E+00  1.34907225630E+00
  1.41652586911E+00  1.48735216257E+00  1.56171977070E+00  1.63980575923E+00
  1.72179604719E+00  1.80788584955E+00  1.89828014203E+00  1.99319414913E+00
  2.09285385659E+00  2.19749654942E+00  2.30737137689E+00  2.42273994573E+00
  2.54387694302E+00  2.67107079017E+00  2.80462432968E+00  2.94485554616E+00
  3.09209832347E+00  3.24670323964E+00  3.40903840162E+00  3.57949032171E+00
  3.75846483779E+00
  </PP_RAB>
</PP_MESH>


<PP_LOCAL>
 -1.08042970374E+01 -1.08058521422E+01 -1.08075285471E+01 -1.08093358659E+01
 -1.08112849462E+01 -1.08133879892E+01 -1.08156570135E+01 -1.08181052955E+01
 -1.08207471608E+01 -1.08235981134E+01 -1.08266749353E+01 -1.08299957947E+01
 -1.08335803625E+01 -1.08374499399E+01 -1.08416275952E+01 -1.08461383139E+01
 -1.08510091598E+01 -1.08562694503E+01 -1.08619509459E+01 -1.08680880548E+01
 -1.08747180539E+01 -1.08818813273E+01 -1.08896216227E+01 -1.08979863269E+01
 -1.09070267613E+01 -1.09167984980E+01 -1.09273616957E+01 -1.09387814579E+01
 -1.09511282095E+01 -1.09644780943E+01 -1.09789133886E+01 -1.09945229296E+01
 -1.10114025534E+01 -1.10296555378E+01 -1.10493930395E+01 -1.10707345168E+01
 -1.10938081209E+01 -1.11187510383E+01 -1.11457097582E+01 -1.11748402320E+01
 -1.12063078847E+01 -1.12402874244E+01 -1.12769623828E+01 -1.13165243027E+01
 -1.13591714634E+01 -1.14051070126E+01 -1.14545363342E+01 -1.15076634424E+01
 -1.15646861427E+01 -1.16257896344E+01 -1.16911381566E+01 -1.17608641888E+01
 -1.18350546083E+01 -1.19137330838E+01 -1.19968378386E+01 -1.20841937586E+01
 -1.21754776534E+01 -1.22701753087E+01 -1.23675288292E+01 -1.24664726884E+01
 -1.25655569423E+01 -1.26628563119E+01 -1.27558644416E+01 -1.28413737814E+01
 -1.29153435122E+01 -1.29727611054E+01 -1.30075079513E+01 -1.30122465858E+01
 -1.29783569323E+01 -1.28959620580E+01 -1.27541000228E+01 -1.25411160710E+01
 -1.22453649296E+01 -1.18563187710E+01 -1.13661593021E+01 -1.07718726166E+01
 -1.00777379669E+01 -9.29788450417E+00 -8.45828399495E+00 -7.59721069400E+00
 -6.76299255068E+00 -6.00804831559E+00 -5.37924844347E+00 -4.90614612024E+00
 -4.59115908910E+00 -4.40672299606E+00 -4.30304748109E+00 -4.22514482089E+00
 -4.13162909073E+00 -4.00531307117E+00 -3.85049537766E+00 -3.68119397348E+00
 -3.50999580156E+00 -3.34370589411E+00 -3.18460172784E+00 -3.03296429235E+00
 -2.88853747362E+00 -2.75098761267E+00 -2.61998777553E+00 -2.49522606982E+00
 -2.37640543920E+00 -2.26324297252E+00 -2.15546923054E+00 -2.05282760447E+00
 -1.95507370503E+00 -1.86197478062E+00 -1.77330916315E+00 -1.68886574033E+00
 -1.60844345297E+00 -1.53185081632E+00 -1.45890546412E+00 -1.38943371441E+00
 -1.32327015599E+00 -1.26025725451E+00 -1.20024497745E+00 -1.14309043679E+00
 -1.08865754884E+00 -1.03681671015E+00 -9.87444488939E-01 -9.40423331189E-01
 -8.95641280719E-01 -8.52991712619E-01 -8.12373079373E-01 -7.73688669071E-01
 -7.36846375148E-01 -7.01758477083E-01 -6.68341431549E-01 -6.36515673511E-01
 -6.06205426791E-01 -5.77338523664E-01 -5.49846233033E-01 -5.23663096794E-01
 -4.98726773985E-01 -4.74977892353E-01 -4.52359906993E-01 -4.30818965711E-01
 -4.10303780787E-01 -3.90765506858E-01 -3.72157624599E-01 -3.54435829946E-01
 -3.37557928591E-01 -3.21483735503E-01 -3.06174979229E-01 -2.91595210756E-01
 -2.77709716712E-01 -2.64485436705E-01 -2.51890884602E-01 -2.39896073557E-01
 -2.28472444611E-01 -2.17592798707E-01 -2.07231209231E-01 -1.97363056410E-01
 -1.87964815629E-01 -1.79014110123E-01 -1.70489628688E-01 -1.62371074941E-01
 -1.54639118992E-01 -1.47275351421E-01 -1.40262239448E-01 -1.33583085189E-01
 -1.27221985894E-01 -1.21163796090E-01 -1.15394091514E-01 -1.09899134775E-01
 -1.04665842643E-01 -9.96817548981E-02 -9.49350046649E-02 -9.04142901570E-02
 -8.61088477686E-02 -8.20084264463E-02 -7.81032632822E-02 -7.43840602687E-02
 -7.08419621607E-02 -6.74685353911E-02 -6.42557479916E-02 -6.11959504682E-02
 -5.82818575887E-02 -5.55065310369E-02 -5.28633628923E-02 -5.03460598974E-02
 -4.79486284737E-02 -4.56653604511E-02 -4.34908194773E-02 -4.14198280736E-02
 -3.94474553082E-02 -3.75690050554E-02 -3.57800048147E-02 -3.40761950616E-02
 -3.24535191063E-02
</PP_LOCAL>


<PP_NONLOCAL>
  <PP_DIJ>
    0                  Number of nonzero Dij
  </PP_DIJ>
</PP_NONLOCAL>


<PP_PSWFC>
1s    0  1.25          Wavefunction
  1.62809663435E-02  1.70950146607E-02  1.79497653938E-02  1.88472536634E-02
  1.97896021417E-02  2.07790210499E-02  2.18178642410E-02  2.29085940881E-02
  2.40537961315E-02  2.52561838261E-02  2.65186046924E-02  2.78440467660E-02
  2.92356453293E-02  3.06966899315E-02  3.22306317067E-02  3.38410909936E-02
  3.55318652636E-02  3.73069373608E-02  3.91704840550E-02  4.11268849087E-02
  4.31807314541E-02  4.53368366760E-02  4.76002447893E-02  4.99762412980E-02
  5.24703633160E-02  5.50884101236E-02  5.78364539254E-02  6.07208507675E-02
  6.37482515598E-02  6.69256131359E-02  7.02602092689E-02  7.37596415430E-02
  7.74318499576E-02  8.12851231183E-02  8.53281078359E-02  8.95698179219E-02
  9.40196419244E-02  9.86873495021E-02  1.03583096073E-01  1.08717425310E-01
  1.14101268965E-01  1.19745943429E-01  1.25663142291E-01  1.31864924070E-01
  1.38363694092E-01  1.45172179357E-01  1.52303394972E-01  1.59770600546E-01
  1.67587244601E-01  1.75766894764E-01  1.84323151125E-01  1.93269539724E-01
  2.02619382643E-01  2.12385640714E-01  2.22580724243E-01  2.33216266650E-01
  2.44302855340E-01  2.55849713696E-01  2.67864327764E-01  2.80352011240E-01
  2.93315402818E-01  3.06753891268E-01  3.20662965938E-01  3.35033494402E-01
  3.49850935233E-01  3.65094503129E-01  3.80736316836E-01  3.96740578281E-01
  4.13062854776E-01  4.29649565147E-01  4.46437803934E-01  4.63355671894E-01
  4.80323308768E-01  4.97254833129E-01  5.14061365104E-01  5.30655215242E-01
  5.46955138070E-01  5.62892250016E-01  5.78415802309E-01  5.93497539321E-01
  6.08133005549E-01  6.22338143160E-01  6.36140170999E-01  6.49563205682E-01
  6.62611251919E-01  6.75253406832E-01  6.87416793392E-01  6.98990788362E-01
  7.09841446681E-01  7.19829960921E-01  7.28827128230E-01  7.36719026900E-01
  7.43405081140E-01  7.48793474893E-01  7.52798008741E-01  7.55337325787E-01
  7.56335523150E-01  7.55723215761E-01  7.53438709217E-01  7.49429205607E-01
  7.43652009037E-01  7.36075705127E-01  7.26681292829E-01  7.15463246929E-01
  7.02430488700E-01  6.87607241301E-01  6.71033745751E-01  6.52766812648E-01
  6.32880184212E-01  6.11464680887E-01  5.88628106590E-01  5.64494887074E-01
  5.39205402404E-01  5.12915062751E-01  4.85792967536E-01  4.58020271981E-01
  4.29788186941E-01  4.01295628012E-01  3.72746528899E-01  3.44346848564E-01
  3.16301318386E-01  2.88809993660E-01  2.62064692365E-01  2.36245421754E-01
  2.11516908487E-01  1.88025358931E-01  1.65895581210E-01  1.45228598075E-01
  1.26099868738E-01  1.08558217950E-01  9.26255423586E-02  7.82973286886E-02
  6.55439777925E-02  5.43128858540E-02  4.45311923503E-02  3.61090672058E-02
  2.89433801243E-02  2.29215760061E-02  1.79255733599E-02  1.38355083184E-02
  1.05331646537E-02  7.90495831723E-03  5.84438078750E-03  4.25384556041E-03
  3.04592294995E-03  2.14398602032E-03  1.48232488319E-03  1.00580093866E-03
  6.69177098888E-04  4.36077545019E-04  2.78067441674E-04  1.73347947510E-04
  1.05539264817E-04  6.26785086121E-05  3.62650231380E-05  2.04149790939E-05
  1.11660183793E-05  5.92517063166E-06  3.04570092779E-06  1.51409172082E-06
  7.26695156725E-07  3.36126530946E-07  1.49547181349E-07  6.38697622338E-08
  2.61304279036E-08  1.02119383537E-08  3.79880390588E-09  0.00000000000E+00
  0.00000000000E+00  0.00000000000E+00  0.00000000000E+00  0.00000000000E+00
  0.00000000000E+00  0.00000000000E+00  0.00000000000E+00  0.00000000000E+00
  0.00000000000E+00  0.00000000000E+00  0.00000000000E+00  0.00000000000E+00
  0.00000000000E+00  0.00000000000E+00  0.00000000000E+00  0.00000000000E+00
  0.00000000000E+00  0.00000000000E+00  0.00000000000E+00  0.00000000000E+00
  0.00000000000E+00
</PP_PSWFC>


<PP_RHOATOM>
  3.31337331349E-04  3.65299407813E-04  4.02742597113E-04  4.44023713318E-04
  4.89535441159E-04  5.39709644742E-04  5.95024000049E-04  6.56004603868E-04
  7.23231385422E-04  7.97343526824E-04  8.79045493540E-04  9.69113675387E-04
  1.06840369727E-03  1.17785846594E-03  1.29851702527E-03  1.43152429954E-03
  1.57814181139E-03  1.73975946905E-03  1.91790852638E-03  2.11427582787E-03
  2.33071946114E-03  2.56928594973E-03  2.83222913000E-03  3.12203086784E-03
  3.44142378315E-03  3.79341616244E-03  4.18131925333E-03  4.60877714741E-03
  5.07979947117E-03  5.59879711702E-03  6.17062125815E-03  6.80060590069E-03
  7.49461423482E-03  8.25908905044E-03  9.10110748358E-03  1.00284403532E-02
  1.10496163345E-02  1.21739911897E-02  1.34118222401E-02  1.47743482075E-02
  1.62738744744E-02  1.79238637096E-02  1.97390316631E-02  2.17354477498E-02
  2.39306398036E-02  2.63437020739E-02  2.89954051500E-02  3.19083059987E-02
  3.51068556912E-02  3.86175016185E-02  4.24687800509E-02  4.66913937313E-02
  5.13182677784E-02  5.63845754768E-02  6.19277235057E-02  6.79872837877E-02
  7.46048564092E-02  8.18238449977E-02  8.96891226107E-02  9.82465627576E-02
  1.07542406913E-01  1.17622437260E-01  1.28530922155E-01  1.40309302964E-01
  1.52994596104E-01  1.66617495268E-01  1.81200178697E-01  1.96753858068E-01
  2.13276152494E-01  2.30748436039E-01  2.49133390977E-01  2.68373098345E-01
  2.88388101183E-01  3.09077961338E-01  3.30323858866E-01  3.51993696830E-01
  3.73949903826E-01  3.96059606411E-01  4.18206050451E-01  4.40299161476E-01
  4.62282190547E-01  4.84130955540E-01  5.05842896448E-01  5.27415447719E-01
  5.48817088963E-01  5.69958954299E-01  5.90677309796E-01  6.10735152769E-01
  6.29843599283E-01  6.47693965800E-01  6.63986228556E-01  6.78443655745E-01
  6.90813893331E-01  7.00864585052E-01  7.08381052455E-01  7.13168094659E-01
  7.15054279473E-01  7.13896973551E-01  7.09587360684E-01  7.02055167772E-01
  6.91272888181E-01  6.77259304598E-01  6.60082126684E-01  6.39859572132E-01
  6.16760739319E-01  5.91004647862E-01  5.62857859921E-01  5.32630639618E-01
  5.00671659460E-01  4.67361319966E-01  4.33103809835E-01  3.98318096915E-01
  3.63428082478E-01  3.28852326996E-01  2.94993509134E-01  2.62228211932E-01
  2.30897357042E-01  2.01297726327E-01  1.73674968507E-01  1.48218440145E-01
  1.25058155016E-01  1.04264015547E-01  8.58473787302E-02  6.97648741246E-02
  5.59242532197E-02  4.41919195015E-02  3.44016798311E-02  2.63641821235E-02
  1.98764711195E-02  1.47311083556E-02  1.07243638715E-02  7.66308959971E-03
  5.37001628108E-03  3.68736196224E-03  2.47878386518E-03  1.62983091810E-03
  1.04714906627E-03  6.56748308252E-04  4.01657725353E-04  2.39276613037E-04
  1.38684447028E-04  7.81104574965E-05  4.26959834866E-05  2.26190025648E-05
  1.15970582713E-05  5.74584506917E-06  2.74660882415E-06  1.26454441026E-06
  5.59747487095E-07  2.37704531587E-07  9.66518776486E-08  3.75618886324E-08
  1.39231705226E-08  4.91074430230E-09  1.64393987900E-09  5.20964214256E-10
  1.55849958059E-10  4.38845587679E-11  1.15953676769E-11  2.86559217381E-12
  6.60107313509E-13  1.41226306008E-13  2.79554493120E-14  5.09918315976E-15
  8.53499078035E-16  1.30354606176E-16  1.80386388941E-17  0.00000000000E+00
  0.00000000000E+00  0.00000000000E+00  0.00000000000E+00  0.00000000000E+00
  0.00000000000E+00  0.00000000000E+00  0.00000000000E+00  0.00000000000E+00
  0.00000000000E+00  0.00000000000E+00  0.00000000000E+00  0.00000000000E+00
  0.00000000000E+00  0.00000000000E+00  0.00000000000E+00  0.00000000000E+00
  0.00000000000E+00  0.00000000000E+00  0.00000000000E+00  0.00000000000E+00
  0.00000000000E+00
</PP_RHOATOM>
