
     Program PWSCF v.5.0.2 (svn rev. 9656) starts on 26Aug2016 at 11:55:38 

     This program is part of the open-source Quantum ESPRESSO suite
     for quantum simulation of materials; please cite
         "P. Giannozzi et al., J. Phys.:Condens. Matter 21 395502 (2009);
          URL http://www.quantum-espresso.org", 
     in publications or presentations arising from this work. More details at
     http://www.quantum-espresso.org/quote.php

     Parallel version (MPI), running on     1 processors

     Current dimensions of program PWSCF are:
     Max number of different atomic species (ntypx) = 10
     Max number of k-points (npk) =  40000
     Max angular momentum in pseudopotentials (lmaxx) =  3
     Waiting for input...
     Reading input from standard input
               file H.pz-vbc.UPF: wavefunction(s)  1S renormalized

     Atomic positions and unit cell read from directory:
     ./SiH4.save/


     Subspace diagonalization in iterative solution of the eigenvalue problem:
     a serial algorithm will be used


     G-vector sticks info
     --------------------
     sticks:   dense  smooth     PW     G-vecs:    dense   smooth      PW
     Sum        9737    9737   2433               724295   724295   90447



     bravais-lattice index     =            1
     lattice parameter (alat)  =      35.0000  a.u.
     unit-cell volume          =   42875.0000 (a.u.)^3
     number of atoms/cell      =            5
     number of atomic types    =            2
     number of electrons       =         8.00
     number of Kohn-Sham states=           40
     kinetic-energy cutoff     =      25.0000  Ry
     charge density cutoff     =     100.0000  Ry
     Exchange-correlation      =  SLA  PZ   NOGX NOGC ( 1 1 0 0 0)
     EXX-fraction              =        0.00

     celldm(1)=  35.000000  celldm(2)=   0.000000  celldm(3)=   0.000000
     celldm(4)=   0.000000  celldm(5)=   0.000000  celldm(6)=   0.000000

     crystal axes: (cart. coord. in units of alat)
               a(1) = (   1.000000   0.000000   0.000000 )  
               a(2) = (   0.000000   1.000000   0.000000 )  
               a(3) = (   0.000000   0.000000   1.000000 )  

     reciprocal axes: (cart. coord. in units 2 pi/alat)
               b(1) = (  1.000000  0.000000  0.000000 )  
               b(2) = (  0.000000  1.000000  0.000000 )  
               b(3) = (  0.000000  0.000000  1.000000 )  


     PseudoPot. # 1 for Si read from file:
     ./Si.pz-vbc.UPF
     MD5 check sum: 6dfa03ddd5817404712e03e4d12deb78
     Pseudo is Norm-conserving, Zval =  4.0
     Generated by new atomic code, or converted to UPF format
     Using radial grid of  431 points,  2 beta functions with: 
                l(1) =   0
                l(2) =   1

     PseudoPot. # 2 for H  read from file:
     ./H.pz-vbc.UPF
     MD5 check sum: 90becb985b714f09656c73597998d266
     Pseudo is Norm-conserving, Zval =  1.0
     Generated by new atomic code, or converted to UPF format
     Using radial grid of  131 points,  0 beta functions with: 

     atomic species   valence    mass     pseudopotential
        Si             4.00    28.08000     Si( 1.00)
        H              1.00     1.00800     H ( 1.00)

     No symmetry found



   Cartesian axes

     site n.     atom                  positions (alat units)
         1           Si  tau(   1) = (   0.0000000   0.0000000   0.0000000  )
         2           H   tau(   2) = (   0.0000000   0.0803943   0.0000000  )
         3           H   tau(   3) = (   0.0000000  -0.0267997  -0.0757959  )
         4           H   tau(   4) = (  -0.0656412  -0.0267997   0.0378980  )
         5           H   tau(   5) = (   0.0656412  -0.0267997   0.0378980  )

     number of k points=     1
                       cart. coord. in units 2pi/alat
        k(    1) = (   0.0000000   0.0000000   0.0000000), wk =   2.0000000

     Dense  grid:   724295 G-vectors     FFT dimensions: ( 120, 120, 120)

     Largest allocated arrays     est. size (Mb)     dimensions
        Kohn-Sham Wavefunctions        55.20 Mb     (  90447,   40)
        NL pseudopotentials             5.52 Mb     (  90447,    4)
        Each V/rho on FFT grid         26.37 Mb     (1728000)
        Each G-vector array             5.53 Mb     ( 724295)
        G-vector shells                 0.02 Mb     (   2588)
     Largest temporary arrays     est. size (Mb)     dimensions
        Auxiliary wavefunctions       220.82 Mb     (  90447,  160)
        Each subspace H/S matrix        0.39 Mb     ( 160, 160)
        Each <psi_i|beta_j> matrix      0.00 Mb     (      4,   40)

     The potential is recalculated from file :
     ./SiH4.save/charge-density.dat

     Starting wfc are    8 randomized atomic wfcs

     total cpu time spent up to now is        1.5 secs

     per-process dynamical memory:   291.3 Mb

     Band Structure Calculation
     Davidson diagonalization with overlap

     ethr =  1.00E-05,  avg # of iterations = 33.0

     total cpu time spent up to now is      145.5 secs

     End of band structure calculation

          k = 0.0000 0.0000 0.0000     band energies (ev):

   -13.4357  -8.4116  -8.4114  -8.4113  -0.4979  -0.1234  -0.1224  -0.1204
     0.0966   0.3457   0.3471   0.3531   0.4342   0.4501   0.6538   0.7087
     0.7114   0.7161   0.7416   0.7691   0.8634   0.8638   0.8649   0.8822
     0.8837   0.8899   1.1273   1.1434   1.2134   1.2171   1.2224   1.2246
     1.2863   1.3224   1.4860   1.5782   1.6311   1.6534   1.6551   1.6690

     highest occupied, lowest unoccupied level (ev):    -8.4113   -0.4979

     Writing output data file SiH4.save

     init_run     :      1.27s CPU      1.40s WALL (       1 calls)
     electrons    :    141.60s CPU    144.08s WALL (       1 calls)

     Called by init_run:
     wfcinit      :      0.00s CPU      0.00s WALL (       1 calls)
     potinit      :      0.49s CPU      0.54s WALL (       1 calls)

     Called by electrons:
     c_bands      :    141.60s CPU    144.04s WALL (       1 calls)
     v_of_rho     :      0.34s CPU      0.35s WALL (       1 calls)

     Called by c_bands:
     init_us_2    :      0.02s CPU      0.04s WALL (       1 calls)
     cegterg      :    134.75s CPU    136.65s WALL (       2 calls)

     Called by *egterg:
     h_psi        :    102.32s CPU    103.13s WALL (      36 calls)
     g_psi        :      0.56s CPU      0.57s WALL (      33 calls)
     cdiaghg      :      0.34s CPU      0.64s WALL (      34 calls)

     Called by h_psi:
     add_vuspsi   :      0.79s CPU      0.80s WALL (      36 calls)

     General routines
     calbec       :      0.78s CPU      0.78s WALL (      36 calls)
     fft          :      0.23s CPU      0.25s WALL (       3 calls)
     fftw         :     82.68s CPU     83.31s WALL (    1534 calls)
     davcio       :      0.00s CPU      0.14s WALL (       3 calls)

     Parallel routines
     fft_scatter  :     11.62s CPU     11.70s WALL (    1537 calls)

     PWSCF        :  2m23.11s CPU     2m25.87s WALL


   This run was terminated on:  11:58: 4  26Aug2016            

=------------------------------------------------------------------------------=
   JOB DONE.
=------------------------------------------------------------------------------=
