
     Program PWSCF v.6.6 starts on 21Oct2020 at 17:13:32 

     This program is part of the open-source Quantum ESPRESSO suite
     for quantum simulation of materials; please cite
         "P. Giannozzi et al., J. Phys.:Condens. Matter 21 395502 (2009);
         "P. Giannozzi et al., J. Phys.:Condens. Matter 29 465901 (2017);
          URL http://www.quantum-espresso.org", 
     in publications or presentations arising from this work. More details at
     http://www.quantum-espresso.org/quote

     Parallel version (MPI), running on     1 processors

     MPI processes distributed on     1 nodes
     Fft bands division:     nmany     =       1
     Waiting for input...
     Reading input from standard input

     Current dimensions of program PWSCF are:
     Max number of different atomic species (ntypx) = 10
     Max number of k-points (npk) =  40000
     Max angular momentum in pseudopotentials (lmaxx) =  3

     Atomic positions and unit cell read from directory:
     ./mos2.save/
     Atomic positions from file used, from input discarded


     Subspace diagonalization in iterative solution of the eigenvalue problem:
     a serial algorithm will be used


     G-vector sticks info
     --------------------
     sticks:   dense  smooth     PW     G-vecs:    dense   smooth      PW
     Sum         583     583    163                56613    56613    9123



     bravais-lattice index     =            4
     lattice parameter (alat)  =       5.8772  a.u.
     unit-cell volume          =     897.4163 (a.u.)^3
     number of atoms/cell      =            3
     number of atomic types    =            2
     number of electrons       =        26.00
     number of Kohn-Sham states=           40
     kinetic-energy cutoff     =      60.0000  Ry
     charge density cutoff     =     240.0000  Ry
     Exchange-correlation= SLA-PZ-NOGX-NOGC
                           (   1   1   0   0   0   0   0)

     celldm(1)=   5.877208  celldm(2)=   0.000000  celldm(3)=   5.104465
     celldm(4)=   0.000000  celldm(5)=   0.000000  celldm(6)=   0.000000

     crystal axes: (cart. coord. in units of alat)
               a(1) = (   1.000000   0.000000   0.000000 )  
               a(2) = (  -0.500000   0.866025   0.000000 )  
               a(3) = (   0.000000   0.000000   5.104465 )  

     reciprocal axes: (cart. coord. in units 2 pi/alat)
               b(1) = (  1.000000  0.577350 -0.000000 )  
               b(2) = (  0.000000  1.154701  0.000000 )  
               b(3) = (  0.000000 -0.000000  0.195907 )  


     PseudoPot. # 1 for Mo read from file:
     ./Mo_SR_withPS_PZ.UPF
     MD5 check sum: 19bf02b7f08077cf8574869525df176e
     Pseudo is Norm-conserving + core correction, Zval = 14.0
     Generated using "atomic" code by A. Dal Corso (Quantum ESPRESSO distribution)
     Using radial grid of 1229 points,  5 beta functions with: 
                l(1) =   0
                l(2) =   0
                l(3) =   1
                l(4) =   2
                l(5) =   2

     PseudoPot. # 2 for S  read from file:
     ./S.pz-hgh.UPF
     MD5 check sum: fb24c143a2a3ea3aba309d3cb9e9e6ec
     Pseudo is Norm-conserving, Zval =  6.0
     Generated in analytical, separable form
     Using radial grid of 1151 points,  3 beta functions with: 
                l(1) =   0
                l(2) =   0
                l(3) =   1

     atomic species   valence    mass     pseudopotential
        Mo            14.00    95.94000     Mo( 1.00)
        S              6.00    32.06500     S ( 1.00)

     12 Sym. Ops. (no inversion) found


                                    s                        frac. trans.

      isym =  1     identity                                     

 cryst.   s( 1) = (     1          0          0      )
                  (     0          1          0      )
                  (     0          0          1      )

 cart.    s( 1) = (  1.0000000  0.0000000  0.0000000 )
                  (  0.0000000  1.0000000  0.0000000 )
                  (  0.0000000  0.0000000  1.0000000 )


      isym =  2     180 deg rotation - cart. axis [0,1,0]        

 cryst.   s( 2) = (    -1          0          0      )
                  (     1          1          0      )
                  (     0          0         -1      )

 cart.    s( 2) = ( -1.0000000  0.0000000  0.0000000 )
                  (  0.0000000  1.0000000  0.0000000 )
                  (  0.0000000  0.0000000 -1.0000000 )


      isym =  3     120 deg rotation - cryst. axis [0,0,1]       

 cryst.   s( 3) = (     0          1          0      )
                  (    -1         -1          0      )
                  (     0          0          1      )

 cart.    s( 3) = ( -0.5000000 -0.8660254  0.0000000 )
                  (  0.8660254 -0.5000000  0.0000000 )
                  (  0.0000000  0.0000000  1.0000000 )


      isym =  4     120 deg rotation - cryst. axis [0,0,-1]      

 cryst.   s( 4) = (    -1         -1          0      )
                  (     1          0          0      )
                  (     0          0          1      )

 cart.    s( 4) = ( -0.5000000  0.8660254  0.0000000 )
                  ( -0.8660254 -0.5000000  0.0000000 )
                  (  0.0000000  0.0000000  1.0000000 )


      isym =  5     180 deg rotation - cryst. axis [1,-1,0]      

 cryst.   s( 5) = (     0         -1          0      )
                  (    -1          0          0      )
                  (     0          0         -1      )

 cart.    s( 5) = (  0.5000000 -0.8660254  0.0000000 )
                  ( -0.8660254 -0.5000000  0.0000000 )
                  (  0.0000000  0.0000000 -1.0000000 )


      isym =  6     180 deg rotation - cryst. axis [2,1,0]       

 cryst.   s( 6) = (     1          1          0      )
                  (     0         -1          0      )
                  (     0          0         -1      )

 cart.    s( 6) = (  0.5000000  0.8660254  0.0000000 )
                  (  0.8660254 -0.5000000  0.0000000 )
                  (  0.0000000  0.0000000 -1.0000000 )


      isym =  7     inv. 180 deg rotation - cart. axis [0,0,1]   

 cryst.   s( 7) = (     1          0          0      )
                  (     0          1          0      )
                  (     0          0         -1      )

 cart.    s( 7) = (  1.0000000  0.0000000  0.0000000 )
                  (  0.0000000  1.0000000  0.0000000 )
                  (  0.0000000  0.0000000 -1.0000000 )


      isym =  8     inv. 180 deg rotation - cart. axis [1,0,0]   

 cryst.   s( 8) = (    -1          0          0      )
                  (     1          1          0      )
                  (     0          0          1      )

 cart.    s( 8) = ( -1.0000000  0.0000000  0.0000000 )
                  (  0.0000000  1.0000000  0.0000000 )
                  (  0.0000000  0.0000000  1.0000000 )


      isym =  9     inv.  60 deg rotation - cryst. axis [0,0,1]  

 cryst.   s( 9) = (    -1         -1          0      )
                  (     1          0          0      )
                  (     0          0         -1      )

 cart.    s( 9) = ( -0.5000000  0.8660254  0.0000000 )
                  ( -0.8660254 -0.5000000  0.0000000 )
                  (  0.0000000  0.0000000 -1.0000000 )


      isym = 10     inv.  60 deg rotation - cryst. axis [0,0,-1] 

 cryst.   s(10) = (     0          1          0      )
                  (    -1         -1          0      )
                  (     0          0         -1      )

 cart.    s(10) = ( -0.5000000 -0.8660254  0.0000000 )
                  (  0.8660254 -0.5000000  0.0000000 )
                  (  0.0000000  0.0000000 -1.0000000 )


      isym = 11     inv. 180 deg rotation - cryst. axis [0,1,0]  

 cryst.   s(11) = (     1          1          0      )
                  (     0         -1          0      )
                  (     0          0          1      )

 cart.    s(11) = (  0.5000000  0.8660254  0.0000000 )
                  (  0.8660254 -0.5000000  0.0000000 )
                  (  0.0000000  0.0000000  1.0000000 )


      isym = 12     inv. 180 deg rotation - cryst. axis [1,1,0]  

 cryst.   s(12) = (     0         -1          0      )
                  (    -1          0          0      )
                  (     0          0          1      )

 cart.    s(12) = (  0.5000000 -0.8660254  0.0000000 )
                  ( -0.8660254 -0.5000000  0.0000000 )
                  (  0.0000000  0.0000000  1.0000000 )


     point group D_3h (-62m)
     there are  6 classes
     the character table:

       E     2C3   3C2   s_h   2S3   3s_v 
A'_1   1.00  1.00  1.00  1.00  1.00  1.00
A'_2   1.00  1.00 -1.00  1.00  1.00 -1.00
E'     2.00 -1.00  0.00  2.00 -1.00  0.00
A''1   1.00  1.00  1.00 -1.00 -1.00 -1.00
A''2   1.00  1.00 -1.00 -1.00 -1.00  1.00
E''    2.00 -1.00  0.00 -2.00  1.00  0.00

     the symmetry operations in each class and the name of the first element:

     E        1
          identity                                               
     2C3      3    4
          120 deg rotation - cryst. axis [0,0,1]                 
     3C2      2    6    5
          180 deg rotation - cart. axis [0,1,0]                  
     s_h      7
          inv. 180 deg rotation - cart. axis [0,0,1]             
     2S3      9   10
          inv.  60 deg rotation - cryst. axis [0,0,1]            
     3s_v     8   11   12
          inv. 180 deg rotation - cart. axis [1,0,0]             

   Cartesian axes

     site n.     atom                  positions (alat units)
         1           Mo  tau(   1) = (  -0.0000000   0.5773503   0.0000000  )
         2           S   tau(   2) = (   0.5000000   0.2886751   0.4991315  )
         3           S   tau(   3) = (   0.5000000   0.2886751  -0.4991315  )

   Crystallographic axes

     site n.     atom                  positions (cryst. coord.)
         1           Mo  tau(   1) = (  0.3333333  0.6666667  0.0000000  )
         2           S   tau(   2) = (  0.6666667  0.3333333  0.0977833  )
         3           S   tau(   3) = (  0.6666667  0.3333333 -0.0977833  )

     number of k points=     3
                       cart. coord. in units 2pi/alat
        k(    1) = (   0.0000000   0.0000000   0.0000000), wk =   0.2222222
        k(    2) = (   0.0000000   0.3849002   0.0000000), wk =   1.3333333
        k(    3) = (   0.3333333   0.5773503   0.0000000), wk =   0.4444444

                       cryst. coord.
        k(    1) = (   0.0000000   0.0000000   0.0000000), wk =   0.2222222
        k(    2) = (   0.0000000   0.3333333   0.0000000), wk =   1.3333333
        k(    3) = (   0.3333333   0.3333333   0.0000000), wk =   0.4444444

     Dense  grid:    56613 G-vectors     FFT dimensions: (  30,  30, 150)

     Dynamical RAM for                 wfc:       4.30 MB

     Dynamical RAM for     wfc (w. buffer):       4.30 MB

     Dynamical RAM for           str. fact:       1.73 MB

     Dynamical RAM for           local pot:       0.00 MB

     Dynamical RAM for          nlocal pot:       2.69 MB

     Dynamical RAM for                qrad:       1.78 MB

     Dynamical RAM for          rho,v,vnew:       5.68 MB

     Dynamical RAM for           G-vectors:       3.67 MB

     Dynamical RAM for          h,s,v(r/c):       0.07 MB

     Dynamical RAM for          <psi|beta>:       0.02 MB

     Dynamical RAM for      wfcinit/wfcrot:       8.63 MB

     Estimated static dynamical RAM per process >      27.58 MB

     Estimated max dynamical RAM per process >      36.22 MB

     Check: negative core charge=   -0.000110

     The potential is recalculated from file :
     ./mos2.save/charge-density

     Starting wfcs are   28 randomized atomic wfcs +   12 random wfcs

     Band Structure Calculation
     CG style diagonalization

     Computing kpt #:     1  of     3
     c_bands:  1 eigenvalues not converged
     total cpu time spent up to now is       14.5 secs

     Computing kpt #:     2  of     3
     c_bands:  2 eigenvalues not converged
     total cpu time spent up to now is       29.0 secs

     Computing kpt #:     3  of     3
     c_bands:  3 eigenvalues not converged
     total cpu time spent up to now is       43.5 secs

     ethr =  3.85E-15,  avg # of iterations = 87.6

     total cpu time spent up to now is       43.5 secs

     End of band structure calculation

          k = 0.0000 0.0000 0.0000 (  7087 PWs)   bands (ev):

   -59.9065 -34.4628 -34.0544 -34.0544 -13.9408 -12.5655  -5.4748  -2.2080
    -2.2080  -1.5613  -1.0636  -1.0636   0.2317   3.3551   3.3551   3.6498
     3.6498   5.1016   5.7676   6.6081   7.1381   8.6593   9.5525  10.4457
    11.2625  11.2625  13.2807  13.2807  13.4449  13.5244  15.4461  16.6861
    16.6861  16.6955  17.1135  17.1135  18.9608  19.6603  20.5579  21.2826

     occupation numbers 
     1.0000   1.0000   1.0000   1.0000   1.0000   1.0000   1.0000   1.0000
     1.0000   1.0000   1.0000   1.0000   1.0000   0.0000   0.0000   0.0000
     0.0000   0.0000   0.0000   0.0000   0.0000   0.0000   0.0000   0.0000
     0.0000   0.0000   0.0000   0.0000   0.0000   0.0000   0.0000   0.0000
     0.0000   0.0000   0.0000   0.0000   0.0000   0.0000   0.0000   0.0000

          k = 0.0000 0.3849 0.0000 (  7036 PWs)   bands (ev):

   -59.8630 -34.4207 -34.3874 -34.1378 -12.4721 -11.9798  -5.0962  -4.0398
    -3.5782  -2.5222  -1.3139  -0.8535  -0.6510   2.8171   2.8590   3.9475
     4.7574   7.2539   7.6759   8.2259   8.5704   8.7592  10.2282  10.4953
    11.9686  12.1151  13.0919  13.3534  14.4703  14.6757  14.8767  15.0459
    15.5420  15.9459  16.6879  16.7283  18.1861  18.3289  18.6424  20.2748

     occupation numbers 
     1.0000   1.0000   1.0000   1.0000   1.0000   1.0000   1.0000   1.0000
     1.0000   1.0000   1.0000   1.0000   1.0000   0.0000   0.0000   0.0000
     0.0000   0.0000   0.0000   0.0000   0.0000   0.0000   0.0000   0.0000
     0.0000   0.0000   0.0000   0.0000   0.0000   0.0000   0.0000   0.0000
     0.0000   0.0000   0.0000   0.0000   0.0000   0.0000   0.0000   0.0000

          k = 0.3333 0.5774 0.0000 (  7047 PWs)   bands (ev):

   -59.8435 -34.4204 -34.3639 -34.3492 -11.5470 -11.5084  -5.3537  -4.4494
    -3.8896  -3.1806  -2.6450  -1.8392   0.4513   2.3116   3.4200   4.2683
     5.7014   7.7713   7.9529   9.8605  11.0241  11.5810  11.9180  12.0546
    12.1607  12.2210  12.3410  12.8863  13.1497  13.2813  13.7981  13.9453
    14.5733  14.6474  14.6620  14.6701  16.6087  17.1083  17.5242  17.8382

     occupation numbers 
     1.0000   1.0000   1.0000   1.0000   1.0000   1.0000   1.0000   1.0000
     1.0000   1.0000   1.0000   1.0000   1.0000   0.0000   0.0000   0.0000
     0.0000   0.0000   0.0000   0.0000   0.0000   0.0000   0.0000   0.0000
     0.0000   0.0000   0.0000   0.0000   0.0000   0.0000   0.0000   0.0000
     0.0000   0.0000   0.0000   0.0000   0.0000   0.0000   0.0000   0.0000

     highest occupied, lowest unoccupied level (ev):     0.4513    2.3116

     Writing output data file ./mos2.save/

     init_run     :      0.24s CPU      0.25s WALL (       1 calls)
     electrons    :     42.91s CPU     43.01s WALL (       1 calls)

     Called by init_run:
     wfcinit      :      0.00s CPU      0.00s WALL (       1 calls)
     wfcinit:atom :      0.01s CPU      0.01s WALL (       3 calls)
     wfcinit:wfcr :      0.54s CPU      0.54s WALL (       3 calls)
     potinit      :      0.01s CPU      0.01s WALL (       1 calls)
     hinit0       :      0.21s CPU      0.22s WALL (       1 calls)

     Called by electrons:
     c_bands      :     42.91s CPU     43.01s WALL (       1 calls)
     v_of_rho     :      0.00s CPU      0.01s WALL (       1 calls)
     v_h          :      0.00s CPU      0.00s WALL (       1 calls)
     v_xc         :      0.00s CPU      0.01s WALL (       1 calls)

     Called by c_bands:
     init_us_2    :      0.00s CPU      0.01s WALL (       3 calls)
     ccgdiagg     :     39.63s CPU     39.72s WALL (      18 calls)
     wfcrot       :      3.26s CPU      3.27s WALL (      18 calls)

     Called by sum_band:

     Called by *cgdiagg:
     h_psi        :     31.73s CPU     31.80s WALL (    9583 calls)

     Called by h_psi:
     h_psi:calbec :      2.94s CPU      2.95s WALL (    9583 calls)
     vloc_psi     :     25.77s CPU     25.83s WALL (    9583 calls)
     add_vuspsi   :      2.91s CPU      2.92s WALL (    9583 calls)
     hs_1psi      :     29.59s CPU     29.66s WALL (    9565 calls)
     s_1psi       :      2.53s CPU      2.53s WALL (    9565 calls)

     General routines
     calbec       :      5.41s CPU      5.42s WALL (   19148 calls)
     fft          :      0.01s CPU      0.01s WALL (       4 calls)
     fftw         :     23.42s CPU     23.47s WALL (   20570 calls)
     davcio       :      0.01s CPU      0.01s WALL (       6 calls)

     Parallel routines

     PWSCF        :     43.40s CPU     43.53s WALL


   This run was terminated on:  17:14:15  21Oct2020            

=------------------------------------------------------------------------------=
   JOB DONE.
=------------------------------------------------------------------------------=
