
     Program PWSCF v.6.6 starts on 21Oct2020 at 17:12:13 

     This program is part of the open-source Quantum ESPRESSO suite
     for quantum simulation of materials; please cite
         "P. Giannozzi et al., J. Phys.:Condens. Matter 21 395502 (2009);
         "P. Giannozzi et al., J. Phys.:Condens. Matter 29 465901 (2017);
          URL http://www.quantum-espresso.org", 
     in publications or presentations arising from this work. More details at
     http://www.quantum-espresso.org/quote

     Parallel version (MPI), running on     1 processors

     MPI processes distributed on     1 nodes
     Fft bands division:     nmany     =       1
     Waiting for input...
     Reading input from standard input

     Current dimensions of program PWSCF are:
     Max number of different atomic species (ntypx) = 10
     Max number of k-points (npk) =  40000
     Max angular momentum in pseudopotentials (lmaxx) =  3

     Subspace diagonalization in iterative solution of the eigenvalue problem:
     a serial algorithm will be used


     G-vector sticks info
     --------------------
     sticks:   dense  smooth     PW     G-vecs:    dense   smooth      PW
     Sum         583     583    163                56613    56613    9123



     bravais-lattice index     =            4
     lattice parameter (alat)  =       5.8772  a.u.
     unit-cell volume          =     897.4163 (a.u.)^3
     number of atoms/cell      =            3
     number of atomic types    =            2
     number of electrons       =        26.00
     number of Kohn-Sham states=           13
     kinetic-energy cutoff     =      60.0000  Ry
     charge density cutoff     =     240.0000  Ry
     convergence threshold     =      1.0E-12
     mixing beta               =       0.7000
     number of iterations used =            8  plain     mixing
     Exchange-correlation= SLA-PZ-NOGX-NOGC
                           (   1   1   0   0   0   0   0)

     celldm(1)=   5.877208  celldm(2)=   0.000000  celldm(3)=   5.104465
     celldm(4)=   0.000000  celldm(5)=   0.000000  celldm(6)=   0.000000

     crystal axes: (cart. coord. in units of alat)
               a(1) = (   1.000000   0.000000   0.000000 )  
               a(2) = (  -0.500000   0.866025   0.000000 )  
               a(3) = (   0.000000   0.000000   5.104465 )  

     reciprocal axes: (cart. coord. in units 2 pi/alat)
               b(1) = (  1.000000  0.577350 -0.000000 )  
               b(2) = (  0.000000  1.154701  0.000000 )  
               b(3) = (  0.000000 -0.000000  0.195907 )  


     PseudoPot. # 1 for Mo read from file:
     ./Mo_SR_withPS_PZ.UPF
     MD5 check sum: 19bf02b7f08077cf8574869525df176e
     Pseudo is Norm-conserving + core correction, Zval = 14.0
     Generated using "atomic" code by A. Dal Corso (Quantum ESPRESSO distribution)
     Using radial grid of 1229 points,  5 beta functions with: 
                l(1) =   0
                l(2) =   0
                l(3) =   1
                l(4) =   2
                l(5) =   2

     PseudoPot. # 2 for S  read from file:
     ./S.pz-hgh.UPF
     MD5 check sum: fb24c143a2a3ea3aba309d3cb9e9e6ec
     Pseudo is Norm-conserving, Zval =  6.0
     Generated in analytical, separable form
     Using radial grid of 1151 points,  3 beta functions with: 
                l(1) =   0
                l(2) =   0
                l(3) =   1

     atomic species   valence    mass     pseudopotential
        Mo            14.00    95.94000     Mo( 1.00)
        S              6.00    32.06500     S ( 1.00)

     12 Sym. Ops. (no inversion) found


                                    s                        frac. trans.

      isym =  1     identity                                     

 cryst.   s( 1) = (     1          0          0      )
                  (     0          1          0      )
                  (     0          0          1      )

 cart.    s( 1) = (  1.0000000  0.0000000  0.0000000 )
                  (  0.0000000  1.0000000  0.0000000 )
                  (  0.0000000  0.0000000  1.0000000 )


      isym =  2     180 deg rotation - cart. axis [0,1,0]        

 cryst.   s( 2) = (    -1          0          0      )
                  (     1          1          0      )
                  (     0          0         -1      )

 cart.    s( 2) = ( -1.0000000  0.0000000  0.0000000 )
                  (  0.0000000  1.0000000  0.0000000 )
                  (  0.0000000  0.0000000 -1.0000000 )


      isym =  3     120 deg rotation - cryst. axis [0,0,1]       

 cryst.   s( 3) = (     0          1          0      )
                  (    -1         -1          0      )
                  (     0          0          1      )

 cart.    s( 3) = ( -0.5000000 -0.8660254  0.0000000 )
                  (  0.8660254 -0.5000000  0.0000000 )
                  (  0.0000000  0.0000000  1.0000000 )


      isym =  4     120 deg rotation - cryst. axis [0,0,-1]      

 cryst.   s( 4) = (    -1         -1          0      )
                  (     1          0          0      )
                  (     0          0          1      )

 cart.    s( 4) = ( -0.5000000  0.8660254  0.0000000 )
                  ( -0.8660254 -0.5000000  0.0000000 )
                  (  0.0000000  0.0000000  1.0000000 )


      isym =  5     180 deg rotation - cryst. axis [1,-1,0]      

 cryst.   s( 5) = (     0         -1          0      )
                  (    -1          0          0      )
                  (     0          0         -1      )

 cart.    s( 5) = (  0.5000000 -0.8660254  0.0000000 )
                  ( -0.8660254 -0.5000000  0.0000000 )
                  (  0.0000000  0.0000000 -1.0000000 )


      isym =  6     180 deg rotation - cryst. axis [2,1,0]       

 cryst.   s( 6) = (     1          1          0      )
                  (     0         -1          0      )
                  (     0          0         -1      )

 cart.    s( 6) = (  0.5000000  0.8660254  0.0000000 )
                  (  0.8660254 -0.5000000  0.0000000 )
                  (  0.0000000  0.0000000 -1.0000000 )


      isym =  7     inv. 180 deg rotation - cart. axis [0,0,1]   

 cryst.   s( 7) = (     1          0          0      )
                  (     0          1          0      )
                  (     0          0         -1      )

 cart.    s( 7) = (  1.0000000  0.0000000  0.0000000 )
                  (  0.0000000  1.0000000  0.0000000 )
                  (  0.0000000  0.0000000 -1.0000000 )


      isym =  8     inv. 180 deg rotation - cart. axis [1,0,0]   

 cryst.   s( 8) = (    -1          0          0      )
                  (     1          1          0      )
                  (     0          0          1      )

 cart.    s( 8) = ( -1.0000000  0.0000000  0.0000000 )
                  (  0.0000000  1.0000000  0.0000000 )
                  (  0.0000000  0.0000000  1.0000000 )


      isym =  9     inv.  60 deg rotation - cryst. axis [0,0,1]  

 cryst.   s( 9) = (    -1         -1          0      )
                  (     1          0          0      )
                  (     0          0         -1      )

 cart.    s( 9) = ( -0.5000000  0.8660254  0.0000000 )
                  ( -0.8660254 -0.5000000  0.0000000 )
                  (  0.0000000  0.0000000 -1.0000000 )


      isym = 10     inv.  60 deg rotation - cryst. axis [0,0,-1] 

 cryst.   s(10) = (     0          1          0      )
                  (    -1         -1          0      )
                  (     0          0         -1      )

 cart.    s(10) = ( -0.5000000 -0.8660254  0.0000000 )
                  (  0.8660254 -0.5000000  0.0000000 )
                  (  0.0000000  0.0000000 -1.0000000 )


      isym = 11     inv. 180 deg rotation - cryst. axis [0,1,0]  

 cryst.   s(11) = (     1          1          0      )
                  (     0         -1          0      )
                  (     0          0          1      )

 cart.    s(11) = (  0.5000000  0.8660254  0.0000000 )
                  (  0.8660254 -0.5000000  0.0000000 )
                  (  0.0000000  0.0000000  1.0000000 )


      isym = 12     inv. 180 deg rotation - cryst. axis [1,1,0]  

 cryst.   s(12) = (     0         -1          0      )
                  (    -1          0          0      )
                  (     0          0          1      )

 cart.    s(12) = (  0.5000000 -0.8660254  0.0000000 )
                  ( -0.8660254 -0.5000000  0.0000000 )
                  (  0.0000000  0.0000000  1.0000000 )


     point group D_3h (-62m)
     there are  6 classes
     the character table:

       E     2C3   3C2   s_h   2S3   3s_v 
A'_1   1.00  1.00  1.00  1.00  1.00  1.00
A'_2   1.00  1.00 -1.00  1.00  1.00 -1.00
E'     2.00 -1.00  0.00  2.00 -1.00  0.00
A''1   1.00  1.00  1.00 -1.00 -1.00 -1.00
A''2   1.00  1.00 -1.00 -1.00 -1.00  1.00
E''    2.00 -1.00  0.00 -2.00  1.00  0.00

     the symmetry operations in each class and the name of the first element:

     E        1
          identity                                               
     2C3      3    4
          120 deg rotation - cryst. axis [0,0,1]                 
     3C2      2    6    5
          180 deg rotation - cart. axis [0,1,0]                  
     s_h      7
          inv. 180 deg rotation - cart. axis [0,0,1]             
     2S3      9   10
          inv.  60 deg rotation - cryst. axis [0,0,1]            
     3s_v     8   11   12
          inv. 180 deg rotation - cart. axis [1,0,0]             

   Cartesian axes

     site n.     atom                  positions (alat units)
         1           Mo  tau(   1) = (  -0.0000000   0.5773503   0.0000000  )
         2           S   tau(   2) = (   0.5000000   0.2886751   0.4991315  )
         3           S   tau(   3) = (   0.5000000   0.2886751  -0.4991315  )

   Crystallographic axes

     site n.     atom                  positions (cryst. coord.)
         1           Mo  tau(   1) = (  0.3333333  0.6666667  0.0000000  )
         2           S   tau(   2) = (  0.6666667  0.3333333  0.0977833  )
         3           S   tau(   3) = (  0.6666667  0.3333333 -0.0977833  )

     number of k points=     3
                       cart. coord. in units 2pi/alat
        k(    1) = (   0.0000000   0.0000000   0.0000000), wk =   0.2222222
        k(    2) = (   0.0000000   0.3849002   0.0000000), wk =   1.3333333
        k(    3) = (   0.3333333   0.5773503   0.0000000), wk =   0.4444444

                       cryst. coord.
        k(    1) = (   0.0000000   0.0000000   0.0000000), wk =   0.2222222
        k(    2) = (   0.0000000   0.3333333   0.0000000), wk =   1.3333333
        k(    3) = (   0.3333333   0.3333333   0.0000000), wk =   0.4444444

     Dense  grid:    56613 G-vectors     FFT dimensions: (  30,  30, 150)

     Dynamical RAM for                 wfc:       1.40 MB

     Dynamical RAM for     wfc (w. buffer):       5.59 MB

     Dynamical RAM for           str. fact:       1.73 MB

     Dynamical RAM for           local pot:       0.00 MB

     Dynamical RAM for          nlocal pot:       2.69 MB

     Dynamical RAM for                qrad:       1.78 MB

     Dynamical RAM for          rho,v,vnew:       5.68 MB

     Dynamical RAM for               rhoin:       1.89 MB

     Dynamical RAM for            rho*nmix:      13.82 MB

     Dynamical RAM for           G-vectors:       3.67 MB

     Dynamical RAM for          h,s,v(r/c):       0.03 MB

     Dynamical RAM for          <psi|beta>:       0.00 MB

     Dynamical RAM for                 psi:       2.79 MB

     Dynamical RAM for                hpsi:       2.79 MB

     Dynamical RAM for      wfcinit/wfcrot:       6.04 MB

     Estimated static dynamical RAM per process >      44.59 MB

     Estimated max dynamical RAM per process >      50.63 MB

     Check: negative core charge=   -0.000110

     Initial potential from superposition of free atoms

     starting charge   23.99902, renormalised to   26.00000

     negative rho (up, down):  1.272E-03 0.000E+00
     Starting wfcs are   28 randomized atomic wfcs

     total cpu time spent up to now is        0.8 secs

     Self-consistent Calculation

     iteration #  1     ecut=    60.00 Ry     beta= 0.70
     Davidson diagonalization with overlap
     ethr =  1.00E-02,  avg # of iterations =  2.7

     negative rho (up, down):  6.351E-08 0.000E+00

     total cpu time spent up to now is        1.3 secs

     total energy              =    -228.95429355 Ry
     estimated scf accuracy    <      12.51688516 Ry

     iteration #  2     ecut=    60.00 Ry     beta= 0.70
     Davidson diagonalization with overlap
     ethr =  1.00E-02,  avg # of iterations = 12.3

     negative rho (up, down):  4.616E-08 0.000E+00

     total cpu time spent up to now is        2.8 secs

     total energy              =    -231.21625789 Ry
     estimated scf accuracy    <      61.24506415 Ry

     iteration #  3     ecut=    60.00 Ry     beta= 0.70
     Davidson diagonalization with overlap
     ethr =  1.00E-02,  avg # of iterations =  5.3

     negative rho (up, down):  3.644E-08 0.000E+00

     total cpu time spent up to now is        3.6 secs

     total energy              =    -236.44287893 Ry
     estimated scf accuracy    <       3.48207817 Ry

     iteration #  4     ecut=    60.00 Ry     beta= 0.70
     Davidson diagonalization with overlap
     ethr =  1.00E-02,  avg # of iterations =  3.0

     total cpu time spent up to now is        4.1 secs

     total energy              =    -236.29196031 Ry
     estimated scf accuracy    <       1.44941878 Ry

     iteration #  5     ecut=    60.00 Ry     beta= 0.70
     Davidson diagonalization with overlap
     ethr =  5.57E-03,  avg # of iterations =  5.0

     total cpu time spent up to now is        4.7 secs

     total energy              =    -237.15473224 Ry
     estimated scf accuracy    <       0.28832343 Ry

     iteration #  6     ecut=    60.00 Ry     beta= 0.70
     Davidson diagonalization with overlap
     ethr =  1.11E-03,  avg # of iterations =  3.7

     total cpu time spent up to now is        5.1 secs

     total energy              =    -237.30113002 Ry
     estimated scf accuracy    <       0.43293515 Ry

     iteration #  7     ecut=    60.00 Ry     beta= 0.70
     Davidson diagonalization with overlap
     ethr =  1.11E-03,  avg # of iterations =  3.0

     total cpu time spent up to now is        5.6 secs

     total energy              =    -237.30551479 Ry
     estimated scf accuracy    <       0.18529477 Ry

     iteration #  8     ecut=    60.00 Ry     beta= 0.70
     Davidson diagonalization with overlap
     ethr =  7.13E-04,  avg # of iterations =  1.3

     negative rho (up, down):  3.189E-07 0.000E+00

     total cpu time spent up to now is        6.0 secs

     total energy              =    -237.24778263 Ry
     estimated scf accuracy    <       0.12155974 Ry

     iteration #  9     ecut=    60.00 Ry     beta= 0.70
     Davidson diagonalization with overlap
     ethr =  4.68E-04,  avg # of iterations =  6.0

     total cpu time spent up to now is        6.6 secs

     total energy              =    -237.29217720 Ry
     estimated scf accuracy    <       0.29518561 Ry

     iteration # 10     ecut=    60.00 Ry     beta= 0.70
     Davidson diagonalization with overlap
     ethr =  4.68E-04,  avg # of iterations =  4.0

     negative rho (up, down):  6.245E-05 0.000E+00

     total cpu time spent up to now is        7.1 secs

     total energy              =    -237.30581443 Ry
     estimated scf accuracy    <       0.02694295 Ry

     iteration # 11     ecut=    60.00 Ry     beta= 0.70
     Davidson diagonalization with overlap
     ethr =  1.04E-04,  avg # of iterations =  5.0

     negative rho (up, down):  1.181E-06 0.000E+00

     total cpu time spent up to now is        7.8 secs

     total energy              =    -237.31372429 Ry
     estimated scf accuracy    <       0.01865562 Ry

     iteration # 12     ecut=    60.00 Ry     beta= 0.70
     Davidson diagonalization with overlap
     ethr =  7.18E-05,  avg # of iterations =  4.3

     total cpu time spent up to now is        8.3 secs

     total energy              =    -237.31866320 Ry
     estimated scf accuracy    <       0.00114978 Ry

     iteration # 13     ecut=    60.00 Ry     beta= 0.70
     Davidson diagonalization with overlap
     ethr =  4.42E-06,  avg # of iterations =  7.0

     total cpu time spent up to now is        9.1 secs

     total energy              =    -237.31789921 Ry
     estimated scf accuracy    <       0.01852691 Ry

     iteration # 14     ecut=    60.00 Ry     beta= 0.70
     Davidson diagonalization with overlap
     ethr =  4.42E-06,  avg # of iterations =  5.0

     total cpu time spent up to now is        9.7 secs

     total energy              =    -237.31827819 Ry
     estimated scf accuracy    <       0.00451424 Ry

     iteration # 15     ecut=    60.00 Ry     beta= 0.70
     Davidson diagonalization with overlap
     ethr =  4.42E-06,  avg # of iterations =  2.0

     total cpu time spent up to now is       10.1 secs

     total energy              =    -237.31801364 Ry
     estimated scf accuracy    <       0.00284790 Ry

     iteration # 16     ecut=    60.00 Ry     beta= 0.70
     Davidson diagonalization with overlap
     ethr =  4.42E-06,  avg # of iterations =  4.7

     total cpu time spent up to now is       10.7 secs

     total energy              =    -237.31810518 Ry
     estimated scf accuracy    <       0.00030755 Ry

     iteration # 17     ecut=    60.00 Ry     beta= 0.70
     Davidson diagonalization with overlap
     ethr =  1.18E-06,  avg # of iterations =  6.7

     total cpu time spent up to now is       11.4 secs

     total energy              =    -237.31833148 Ry
     estimated scf accuracy    <       0.00150001 Ry

     iteration # 18     ecut=    60.00 Ry     beta= 0.70
     Davidson diagonalization with overlap
     ethr =  1.18E-06,  avg # of iterations =  2.7

     total cpu time spent up to now is       11.9 secs

     total energy              =    -237.31829837 Ry
     estimated scf accuracy    <       0.00064271 Ry

     iteration # 19     ecut=    60.00 Ry     beta= 0.70
     Davidson diagonalization with overlap
     ethr =  1.18E-06,  avg # of iterations =  2.7

     total cpu time spent up to now is       12.4 secs

     total energy              =    -237.31824061 Ry
     estimated scf accuracy    <       0.00028150 Ry

     iteration # 20     ecut=    60.00 Ry     beta= 0.70
     Davidson diagonalization with overlap
     ethr =  1.08E-06,  avg # of iterations =  5.7

     total cpu time spent up to now is       12.9 secs

     total energy              =    -237.31832587 Ry
     estimated scf accuracy    <       0.00004737 Ry

     iteration # 21     ecut=    60.00 Ry     beta= 0.70
     Davidson diagonalization with overlap
     ethr =  1.82E-07,  avg # of iterations =  2.0

     total cpu time spent up to now is       13.4 secs

     total energy              =    -237.31832761 Ry
     estimated scf accuracy    <       0.00001838 Ry

     iteration # 22     ecut=    60.00 Ry     beta= 0.70
     Davidson diagonalization with overlap
     ethr =  7.07E-08,  avg # of iterations =  3.0

     total cpu time spent up to now is       13.8 secs

     total energy              =    -237.31832678 Ry
     estimated scf accuracy    <       0.00001057 Ry

     iteration # 23     ecut=    60.00 Ry     beta= 0.70
     Davidson diagonalization with overlap
     ethr =  4.06E-08,  avg # of iterations =  3.3

     total cpu time spent up to now is       14.3 secs

     total energy              =    -237.31832746 Ry
     estimated scf accuracy    <       0.00000264 Ry

     iteration # 24     ecut=    60.00 Ry     beta= 0.70
     Davidson diagonalization with overlap
     ethr =  1.02E-08,  avg # of iterations =  7.3

     total cpu time spent up to now is       15.0 secs

     total energy              =    -237.31832824 Ry
     estimated scf accuracy    <       0.00000349 Ry

     iteration # 25     ecut=    60.00 Ry     beta= 0.70
     Davidson diagonalization with overlap
     ethr =  1.02E-08,  avg # of iterations =  4.7

     total cpu time spent up to now is       15.6 secs

     total energy              =    -237.31832983 Ry
     estimated scf accuracy    <       0.00000169 Ry

     iteration # 26     ecut=    60.00 Ry     beta= 0.70
     Davidson diagonalization with overlap
     ethr =  6.50E-09,  avg # of iterations =  1.0

     total cpu time spent up to now is       15.9 secs

     total energy              =    -237.31832935 Ry
     estimated scf accuracy    <       0.00000233 Ry

     iteration # 27     ecut=    60.00 Ry     beta= 0.70
     Davidson diagonalization with overlap
     ethr =  6.50E-09,  avg # of iterations =  1.3

     total cpu time spent up to now is       16.3 secs

     total energy              =    -237.31832931 Ry
     estimated scf accuracy    <       0.00000115 Ry

     iteration # 28     ecut=    60.00 Ry     beta= 0.70
     Davidson diagonalization with overlap
     ethr =  4.42E-09,  avg # of iterations =  1.7

     total cpu time spent up to now is       16.8 secs

     total energy              =    -237.31832922 Ry
     estimated scf accuracy    <       0.00000063 Ry

     iteration # 29     ecut=    60.00 Ry     beta= 0.70
     Davidson diagonalization with overlap
     ethr =  2.44E-09,  avg # of iterations =  3.3

     total cpu time spent up to now is       17.3 secs

     total energy              =    -237.31832931 Ry
     estimated scf accuracy    <       0.00000007 Ry

     iteration # 30     ecut=    60.00 Ry     beta= 0.70
     Davidson diagonalization with overlap
     ethr =  2.76E-10,  avg # of iterations =  5.0

     total cpu time spent up to now is       17.9 secs

     total energy              =    -237.31832936 Ry
     estimated scf accuracy    <          9.1E-09 Ry

     iteration # 31     ecut=    60.00 Ry     beta= 0.70
     Davidson diagonalization with overlap
     ethr =  3.51E-11,  avg # of iterations =  5.7

     total cpu time spent up to now is       18.4 secs

     total energy              =    -237.31832937 Ry
     estimated scf accuracy    <          2.2E-09 Ry

     iteration # 32     ecut=    60.00 Ry     beta= 0.70
     Davidson diagonalization with overlap
     ethr =  8.55E-12,  avg # of iterations =  7.3

     total cpu time spent up to now is       19.4 secs

     total energy              =    -237.31832937 Ry
     estimated scf accuracy    <       0.00000010 Ry

     iteration # 33     ecut=    60.00 Ry     beta= 0.70
     Davidson diagonalization with overlap
     ethr =  8.55E-12,  avg # of iterations =  5.7

     total cpu time spent up to now is       20.1 secs

     total energy              =    -237.31832936 Ry
     estimated scf accuracy    <       0.00000003 Ry

     iteration # 34     ecut=    60.00 Ry     beta= 0.70
     Davidson diagonalization with overlap
     ethr =  8.55E-12,  avg # of iterations =  5.3

     total cpu time spent up to now is       20.7 secs

     total energy              =    -237.31832937 Ry
     estimated scf accuracy    <          9.4E-09 Ry

     iteration # 35     ecut=    60.00 Ry     beta= 0.70
     Davidson diagonalization with overlap
     ethr =  8.55E-12,  avg # of iterations =  1.0

     total cpu time spent up to now is       21.1 secs

     total energy              =    -237.31832937 Ry
     estimated scf accuracy    <       0.00000001 Ry

     iteration # 36     ecut=    60.00 Ry     beta= 0.70
     Davidson diagonalization with overlap
     ethr =  8.55E-12,  avg # of iterations =  1.0

     total cpu time spent up to now is       21.5 secs

     total energy              =    -237.31832937 Ry
     estimated scf accuracy    <       0.00000001 Ry

     iteration # 37     ecut=    60.00 Ry     beta= 0.70
     Davidson diagonalization with overlap
     ethr =  8.55E-12,  avg # of iterations =  1.0

     total cpu time spent up to now is       21.9 secs

     total energy              =    -237.31832936 Ry
     estimated scf accuracy    <       0.00000001 Ry

     iteration # 38     ecut=    60.00 Ry     beta= 0.70
     Davidson diagonalization with overlap
     ethr =  8.55E-12,  avg # of iterations =  1.7

     total cpu time spent up to now is       22.3 secs

     total energy              =    -237.31832936 Ry
     estimated scf accuracy    <          7.4E-09 Ry

     iteration # 39     ecut=    60.00 Ry     beta= 0.70
     Davidson diagonalization with overlap
     ethr =  8.55E-12,  avg # of iterations =  6.3

     total cpu time spent up to now is       23.1 secs

     total energy              =    -237.31832936 Ry
     estimated scf accuracy    <          7.8E-09 Ry

     iteration # 40     ecut=    60.00 Ry     beta= 0.70
     Davidson diagonalization with overlap
     ethr =  8.55E-12,  avg # of iterations =  3.0

     total cpu time spent up to now is       23.6 secs

     total energy              =    -237.31832936 Ry
     estimated scf accuracy    <          2.1E-09 Ry

     iteration # 41     ecut=    60.00 Ry     beta= 0.70
     Davidson diagonalization with overlap
     ethr =  7.90E-12,  avg # of iterations =  4.3

     total cpu time spent up to now is       24.1 secs

     total energy              =    -237.31832936 Ry
     estimated scf accuracy    <          2.3E-11 Ry

     iteration # 42     ecut=    60.00 Ry     beta= 0.70
     Davidson diagonalization with overlap
     ethr =  1.00E-13,  avg # of iterations =  7.7

     total cpu time spent up to now is       24.9 secs

     total energy              =    -237.31832936 Ry
     estimated scf accuracy    <          8.0E-11 Ry

     iteration # 43     ecut=    60.00 Ry     beta= 0.70
     Davidson diagonalization with overlap
     ethr =  1.00E-13,  avg # of iterations =  4.0

     total cpu time spent up to now is       25.5 secs

     total energy              =    -237.31832936 Ry
     estimated scf accuracy    <          5.6E-12 Ry

     iteration # 44     ecut=    60.00 Ry     beta= 0.70
     Davidson diagonalization with overlap
     ethr =  1.00E-13,  avg # of iterations =  4.7

     total cpu time spent up to now is       26.1 secs

     total energy              =    -237.31832936 Ry
     estimated scf accuracy    <          4.8E-11 Ry

     iteration # 45     ecut=    60.00 Ry     beta= 0.70
     Davidson diagonalization with overlap
     ethr =  1.00E-13,  avg # of iterations =  2.0

     total cpu time spent up to now is       26.5 secs

     total energy              =    -237.31832936 Ry
     estimated scf accuracy    <          8.5E-11 Ry

     iteration # 46     ecut=    60.00 Ry     beta= 0.70
     Davidson diagonalization with overlap
     ethr =  1.00E-13,  avg # of iterations =  1.7

     total cpu time spent up to now is       26.9 secs

     total energy              =    -237.31832936 Ry
     estimated scf accuracy    <          1.0E-10 Ry

     iteration # 47     ecut=    60.00 Ry     beta= 0.70
     Davidson diagonalization with overlap
     ethr =  1.00E-13,  avg # of iterations =  1.0

     total cpu time spent up to now is       27.3 secs

     total energy              =    -237.31832936 Ry
     estimated scf accuracy    <          1.0E-10 Ry

     iteration # 48     ecut=    60.00 Ry     beta= 0.70
     Davidson diagonalization with overlap
     ethr =  1.00E-13,  avg # of iterations =  1.0

     total cpu time spent up to now is       27.7 secs

     total energy              =    -237.31832936 Ry
     estimated scf accuracy    <          8.6E-11 Ry

     iteration # 49     ecut=    60.00 Ry     beta= 0.70
     Davidson diagonalization with overlap
     ethr =  1.00E-13,  avg # of iterations =  1.0

     total cpu time spent up to now is       28.1 secs

     total energy              =    -237.31832936 Ry
     estimated scf accuracy    <          1.0E-10 Ry

     iteration # 50     ecut=    60.00 Ry     beta= 0.70
     Davidson diagonalization with overlap
     ethr =  1.00E-13,  avg # of iterations =  3.7

     total cpu time spent up to now is       28.6 secs

     total energy              =    -237.31832936 Ry
     estimated scf accuracy    <          1.8E-11 Ry

     iteration # 51     ecut=    60.00 Ry     beta= 0.70
     Davidson diagonalization with overlap
     ethr =  1.00E-13,  avg # of iterations =  4.3

     total cpu time spent up to now is       29.2 secs

     total energy              =    -237.31832936 Ry
     estimated scf accuracy    <          1.7E-11 Ry

     iteration # 52     ecut=    60.00 Ry     beta= 0.70
     Davidson diagonalization with overlap
     ethr =  1.00E-13,  avg # of iterations =  1.3

     total cpu time spent up to now is       29.6 secs

     total energy              =    -237.31832936 Ry
     estimated scf accuracy    <          1.4E-11 Ry

     iteration # 53     ecut=    60.00 Ry     beta= 0.70
     Davidson diagonalization with overlap
     ethr =  1.00E-13,  avg # of iterations =  1.0

     total cpu time spent up to now is       30.0 secs

     total energy              =    -237.31832936 Ry
     estimated scf accuracy    <          1.2E-11 Ry

     iteration # 54     ecut=    60.00 Ry     beta= 0.70
     Davidson diagonalization with overlap
     ethr =  1.00E-13,  avg # of iterations =  1.0

     total cpu time spent up to now is       30.4 secs

     total energy              =    -237.31832936 Ry
     estimated scf accuracy    <          3.5E-12 Ry

     iteration # 55     ecut=    60.00 Ry     beta= 0.70
     Davidson diagonalization with overlap
     ethr =  1.00E-13,  avg # of iterations =  1.0

     total cpu time spent up to now is       30.8 secs

     total energy              =    -237.31832936 Ry
     estimated scf accuracy    <          5.8E-12 Ry

     iteration # 56     ecut=    60.00 Ry     beta= 0.70
     Davidson diagonalization with overlap
     ethr =  1.00E-13,  avg # of iterations =  1.0

     total cpu time spent up to now is       31.2 secs

     total energy              =    -237.31832936 Ry
     estimated scf accuracy    <          7.0E-12 Ry

     iteration # 57     ecut=    60.00 Ry     beta= 0.70
     Davidson diagonalization with overlap
     ethr =  1.00E-13,  avg # of iterations =  1.0

     total cpu time spent up to now is       31.6 secs

     total energy              =    -237.31832936 Ry
     estimated scf accuracy    <          6.6E-12 Ry

     iteration # 58     ecut=    60.00 Ry     beta= 0.70
     Davidson diagonalization with overlap
     ethr =  1.00E-13,  avg # of iterations =  1.3

     total cpu time spent up to now is       32.0 secs

     End of self-consistent calculation

          k = 0.0000 0.0000 0.0000 (  7087 PWs)   bands (ev):

   -59.9065 -34.4628 -34.0544 -34.0544 -13.9408 -12.5655  -5.4748  -2.2080
    -2.2080  -1.5613  -1.0636  -1.0636   0.2317

     occupation numbers 
     1.0000   1.0000   1.0000   1.0000   1.0000   1.0000   1.0000   1.0000
     1.0000   1.0000   1.0000   1.0000   1.0000

          k = 0.0000 0.3849 0.0000 (  7036 PWs)   bands (ev):

   -59.8630 -34.4207 -34.3874 -34.1379 -12.4722 -11.9798  -5.0962  -4.0398
    -3.5782  -2.5222  -1.3139  -0.8536  -0.6510

     occupation numbers 
     1.0000   1.0000   1.0000   1.0000   1.0000   1.0000   1.0000   1.0000
     1.0000   1.0000   1.0000   1.0000   1.0000

          k = 0.3333 0.5774 0.0000 (  7047 PWs)   bands (ev):

   -59.8436 -34.4204 -34.3639 -34.3492 -11.5470 -11.5084  -5.3537  -4.4494
    -3.8896  -3.1806  -2.6450  -1.8392   0.4513

     occupation numbers 
     1.0000   1.0000   1.0000   1.0000   1.0000   1.0000   1.0000   1.0000
     1.0000   1.0000   1.0000   1.0000   1.0000

     highest occupied level (ev):     0.4513

!    total energy              =    -237.31832936 Ry
     estimated scf accuracy    <          6.5E-13 Ry

     The total energy is the sum of the following terms:
     one-electron contribution =    -816.87338048 Ry
     hartree contribution      =     410.60413946 Ry
     xc contribution           =     -86.47172623 Ry
     ewald contribution        =     255.42263788 Ry

     convergence has been achieved in  58 iterations

     Writing output data file ./mos2.save/

     init_run     :      0.66s CPU      0.67s WALL (       1 calls)
     electrons    :     31.10s CPU     31.14s WALL (       1 calls)

     Called by init_run:
     wfcinit      :      0.36s CPU      0.36s WALL (       1 calls)
     wfcinit:atom :      0.00s CPU      0.01s WALL (       3 calls)
     wfcinit:wfcr :      0.33s CPU      0.33s WALL (       3 calls)
     potinit      :      0.07s CPU      0.07s WALL (       1 calls)
     hinit0       :      0.21s CPU      0.22s WALL (       1 calls)

     Called by electrons:
     c_bands      :     26.48s CPU     26.51s WALL (      58 calls)
     sum_band     :      3.50s CPU      3.50s WALL (      58 calls)
     v_of_rho     :      0.42s CPU      0.42s WALL (      59 calls)
     v_h          :      0.14s CPU      0.14s WALL (      59 calls)
     v_xc         :      0.28s CPU      0.28s WALL (      59 calls)
     mix_rho      :      0.65s CPU      0.65s WALL (      58 calls)

     Called by c_bands:
     init_us_2    :      0.52s CPU      0.53s WALL (     351 calls)
     cegterg      :     25.73s CPU     25.76s WALL (     174 calls)

     Called by sum_band:
     sum_band:wei :      0.00s CPU      0.00s WALL (      58 calls)
     sum_band:loo :      3.14s CPU      3.15s WALL (      58 calls)
     sum_band:buf :      0.03s CPU      0.03s WALL (     174 calls)
     sum_band:ini :      0.26s CPU      0.26s WALL (     174 calls)

     Called by *egterg:
     cdiaghg      :      0.11s CPU      0.11s WALL (     791 calls)
     cegterg:over :      2.40s CPU      2.40s WALL (     617 calls)
     cegterg:upda :      1.19s CPU      1.19s WALL (     617 calls)
     cegterg:last :      1.97s CPU      1.97s WALL (     386 calls)
     h_psi        :     19.38s CPU     19.40s WALL (     794 calls)
     g_psi        :      0.08s CPU      0.08s WALL (     617 calls)

     Called by h_psi:
     h_psi:calbec :      2.07s CPU      2.07s WALL (     794 calls)
     vloc_psi     :     15.64s CPU     15.65s WALL (     794 calls)
     add_vuspsi   :      1.61s CPU      1.61s WALL (     794 calls)

     General routines
     calbec       :      2.07s CPU      2.07s WALL (     794 calls)
     fft          :      0.33s CPU      0.33s WALL (     177 calls)
     ffts         :      0.12s CPU      0.12s WALL (      58 calls)
     fftw         :     16.81s CPU     16.82s WALL (   14916 calls)

     Parallel routines

     PWSCF        :     31.94s CPU     32.00s WALL


   This run was terminated on:  17:12:45  21Oct2020            

=------------------------------------------------------------------------------=
   JOB DONE.
=------------------------------------------------------------------------------=
