
     Program PHONON v.5.1 (svn rev. 440) starts on 20Jul2015 at 15: 2:44 

     This program is part of the open-source Quantum ESPRESSO suite
     for quantum simulation of materials; please cite
         "P. Giannozzi et al., J. Phys.:Condens. Matter 21 395502 (2009);
          URL http://www.quantum-espresso.org", 
     in publications or presentations arising from this work. More details at
     http://www.quantum-espresso.org/quote

     Serial version

   Info: using nr1, nr2, nr3 values from input

   Info: using nr1s, nr2s, nr3s values from input

     IMPORTANT: XC functional enforced from input :
     Exchange-correlation      = SLA-PZ-NOGX-NOGC ( 1  1  0  0 0)
     Any further DFT definition will be discarded
     Please, verify this is what you really want


     G-vector sticks info
     --------------------
     sticks:   dense  smooth     PW     G-vecs:    dense   smooth      PW
     Sum         583     583    163                56613    56613    9123


     Check: negative/imaginary core charge=   -0.000110    0.000000


     Dynamical matrices for ( 3, 3, 1)  uniform grid of q-points
     (   3q-points):
       N         xq(1)         xq(2)         xq(3) 
       1   0.000000000   0.000000000   0.000000000
       2   0.000000000   0.384900179   0.000000000
       3   0.333333333   0.577350269   0.000000000
  autoval = -.5010E+00
     Irreps are as follows:

                     mode #   1
                     (  -1.00000  -0.00000   ) 
                     (  -0.00036  -0.00000   ) 
                     (  -0.00000  -0.00000   ) 
                     (  -0.00000   0.00000   ) 
                     (  -0.00000   0.00000   ) 
                     (  -0.00000   0.00000   ) 
                     (  -0.00000   0.00000   ) 
                     (  -0.00000   0.00000   ) 
                     (  -0.00000   0.00000   ) 
  autoval = -.5010E+00
     Irreps are as follows:

                     mode #   2
                     (  -0.00036  -0.00000   ) 
                     (   1.00000  -0.00000   ) 
                     (   0.00000  -0.00000   ) 
                     (  -0.00000  -0.00000   ) 
                     (  -0.00000  -0.00000   ) 
                     (  -0.00000  -0.00000   ) 
                     (  -0.00000  -0.00000   ) 
                     (  -0.00000  -0.00000   ) 
                     (  -0.00000  -0.00000   ) 
  autoval = -.7129E-01
     Irreps are as follows:

                     mode #   3
                     (  -0.00000  -0.00000   ) 
                     (  -0.00000  -0.00000   ) 
                     (  -0.00000  -0.00000   ) 
                     (  -0.70709  -0.00000   ) 
                     (   0.00552  -0.00000   ) 
                     (  -0.00000  -0.00000   ) 
                     (   0.70709  -0.00000   ) 
                     (  -0.00552  -0.00000   ) 
                     (  -0.00000  -0.00000   ) 
  autoval = -.7129E-01
     Irreps are as follows:

                     mode #   4
                     (  -0.00000  -0.00000   ) 
                     (  -0.00000  -0.00000   ) 
                     (  -0.00000  -0.00000   ) 
                     (  -0.00552  -0.00000   ) 
                     (  -0.70709  -0.00000   ) 
                     (  -0.00000  -0.00000   ) 
                     (   0.00552  -0.00000   ) 
                     (   0.70709  -0.00000   ) 
                     (   0.00000  -0.00000   ) 
  autoval = -.3293E-01
     Irreps are as follows:

                     mode #   5
                     (  -0.00000   0.00000   ) 
                     (  -0.00000   0.00000   ) 
                     (  -0.00000   0.00000   ) 
                     (   0.00000   0.00000   ) 
                     (   0.00000   0.00000   ) 
                     (  -0.70711  -0.00000   ) 
                     (   0.00000   0.00000   ) 
                     (  -0.00000  -0.00000   ) 
                     (   0.70711   0.00000   ) 
  autoval = -.6824E-02
     Irreps are as follows:

                     mode #   6
                     (   0.00000  -0.00000   ) 
                     (   0.00000  -0.00000   ) 
                     (  -1.00000  -0.00000   ) 
                     (  -0.00000  -0.00000   ) 
                     (  -0.00000  -0.00000   ) 
                     (  -0.00000  -0.00000   ) 
                     (  -0.00000  -0.00000   ) 
                     (  -0.00000  -0.00000   ) 
                     (  -0.00000  -0.00000   ) 
  autoval = 0.2257E-02
     Irreps are as follows:

                     mode #   7
                     (  -0.00000  -0.00000   ) 
                     (  -0.00000  -0.00000   ) 
                     (  -0.00000  -0.00000   ) 
                     (   0.00000  -0.00000   ) 
                     (   0.00000  -0.00000   ) 
                     (  -0.70711  -0.00000   ) 
                     (  -0.00000  -0.00000   ) 
                     (   0.00000  -0.00000   ) 
                     (  -0.70711  -0.00000   ) 
  autoval = 0.4297E-01
     Irreps are as follows:

                     mode #   8
                     (  -0.00000   0.00000   ) 
                     (  -0.00000   0.00000   ) 
                     (  -0.00000   0.00000   ) 
                     (  -0.00988  -0.00000   ) 
                     (  -0.70704  -0.00000   ) 
                     (  -0.00000  -0.00000   ) 
                     (  -0.00988  -0.00000   ) 
                     (  -0.70704  -0.00000   ) 
                     (  -0.00000  -0.00000   ) 
  autoval = 0.4297E-01
     Irreps are as follows:

                     mode #   9
                     (  -0.00000  -0.00000   ) 
                     (  -0.00000  -0.00000   ) 
                     (  -0.00000  -0.00000   ) 
                     (  -0.70704  -0.00000   ) 
                     (   0.00988  -0.00000   ) 
                     (  -0.00000  -0.00000   ) 
                     (  -0.70704  -0.00000   ) 
                     (   0.00988  -0.00000   ) 
                     (   0.00000  -0.00000   ) 
  autoval = -.1640E+01
     Irreps are as follows:

                     mode #   1
                     (  -0.00000   0.00000   ) 
                     (  -1.00000  -0.00000   ) 
                     (  -0.00000  -0.00000   ) 
                     (  -0.00000  -0.00000   ) 
                     (  -0.00000  -0.00000   ) 
                     (  -0.00000  -0.00000   ) 
                     (  -0.00000  -0.00000   ) 
                     (  -0.00000  -0.00000   ) 
                     (  -0.00000  -0.00000   ) 
  autoval = -.8985E+00
     Irreps are as follows:

                     mode #   2
                     (  -1.00000  -0.00000   ) 
                     (  -0.00000  -0.00000   ) 
                     (  -0.00000  -0.00000   ) 
                     (  -0.00000  -0.00000   ) 
                     (  -0.00000  -0.00000   ) 
                     (  -0.00000  -0.00000   ) 
                     (  -0.00000  -0.00000   ) 
                     (  -0.00000  -0.00000   ) 
                     (  -0.00000  -0.00000   ) 
  autoval = -.7902E+00
     Irreps are as follows:

                     mode #   3
                     (  -0.00000   0.00000   ) 
                     (  -0.00000   0.00000   ) 
                     (  -0.00000   0.00000   ) 
                     (  -0.70711  -0.00000   ) 
                     (  -0.00000  -0.00000   ) 
                     (  -0.00000  -0.00000   ) 
                     (  -0.70711  -0.00000   ) 
                     (  -0.00000   0.00000   ) 
                     (   0.00000   0.00000   ) 
  autoval = -.3835E-01
     Irreps are as follows:

                     mode #   4
                     (  -0.00000  -0.00000   ) 
                     (  -0.00000  -0.00000   ) 
                     (  -0.00000  -0.00000   ) 
                     (   0.00000  -0.00000   ) 
                     (  -0.27652   0.00000   ) 
                     (  -0.58735   0.28028   ) 
                     (   0.00000  -0.00000   ) 
                     (  -0.27652   0.00000   ) 
                     (   0.58735  -0.28028   ) 
  autoval = -.7923E-02
     Irreps are as follows:

                     mode #   5
                     (  -0.00000  -0.00000   ) 
                     (  -0.00000  -0.00000   ) 
                     (  -0.00000  -0.00000   ) 
                     (  -0.00000  -0.00000   ) 
                     (  -0.09431  -0.00000   ) 
                     (  -0.13774  -0.68712   ) 
                     (   0.00000  -0.00000   ) 
                     (   0.09431  -0.00000   ) 
                     (  -0.13774  -0.68712   ) 
  autoval = 0.2539E-01
     Irreps are as follows:

                     mode #   6
                     (  -0.00000   0.00000   ) 
                     (  -0.00000   0.00000   ) 
                     (  -1.00000  -0.00000   ) 
                     (  -0.00000  -0.00000   ) 
                     (  -0.00000  -0.00000   ) 
                     (  -0.00000  -0.00000   ) 
                     (  -0.00000  -0.00000   ) 
                     (  -0.00000  -0.00000   ) 
                     (  -0.00000  -0.00000   ) 
  autoval = 0.5034E+00
     Irreps are as follows:

                     mode #   7
                     (   0.00000  -0.00000   ) 
                     (   0.00000  -0.00000   ) 
                     (   0.00000  -0.00000   ) 
                     (   0.00000  -0.00000   ) 
                     (  -0.65080   0.00000   ) 
                     (   0.24956  -0.11909   ) 
                     (  -0.00000   0.00000   ) 
                     (  -0.65080   0.00000   ) 
                     (  -0.24956   0.11909   ) 
  autoval = 0.9332E+00
     Irreps are as follows:

                     mode #   8
                     (  -0.00000  -0.00000   ) 
                     (  -0.00000  -0.00000   ) 
                     (  -0.00000  -0.00000   ) 
                     (  -0.70711  -0.00000   ) 
                     (  -0.00000  -0.00000   ) 
                     (   0.00000   0.00000   ) 
                     (   0.70711   0.00000   ) 
                     (  -0.00000  -0.00000   ) 
                     (  -0.00000  -0.00000   ) 
  autoval = 0.1730E+01
     Irreps are as follows:

                     mode #   9
                     (  -0.00000  -0.00000   ) 
                     (  -0.00000  -0.00000   ) 
                     (  -0.00000  -0.00000   ) 
                     (  -0.00000  -0.00000   ) 
                     (  -0.70079  -0.00000   ) 
                     (   0.01854   0.09247   ) 
                     (   0.00000   0.00000   ) 
                     (   0.70079   0.00000   ) 
                     (   0.01854   0.09247   ) 
  autoval = -.2314E+01
     Irreps are as follows:

                     mode #   1
                     (  -0.70711   0.00000   ) 
                     (  -0.00000   0.70711   ) 
                     (  -0.00000  -0.00000   ) 
                     (  -0.00000  -0.00000   ) 
                     (  -0.00000  -0.00000   ) 
                     (  -0.00000  -0.00000   ) 
                     (  -0.00000  -0.00000   ) 
                     (  -0.00000  -0.00000   ) 
                     (  -0.00000  -0.00000   ) 
  autoval = -.9719E+00
     Irreps are as follows:

                     mode #   2
                     (  -0.00000   0.00000   ) 
                     (  -0.00000   0.00000   ) 
                     (  -0.00000   0.00000   ) 
                     (  -0.50000  -0.00000   ) 
                     (  -0.00000   0.50000   ) 
                     (  -0.00000   0.00000   ) 
                     (  -0.50000  -0.00000   ) 
                     (  -0.00000   0.50000   ) 
                     (  -0.00000   0.00000   ) 
  autoval = -.2245E+00
     Irreps are as follows:

                     mode #   3
                     (  -0.70711  -0.00000   ) 
                     (   0.00000  -0.70711   ) 
                     (  -0.00000  -0.00000   ) 
                     (  -0.00000  -0.00000   ) 
                     (  -0.00000  -0.00000   ) 
                     (  -0.00000  -0.00000   ) 
                     (  -0.00000  -0.00000   ) 
                     (  -0.00000  -0.00000   ) 
                     (  -0.00000  -0.00000   ) 
  autoval = 0.2300E-01
     Irreps are as follows:

                     mode #   4
                     (  -0.00000  -0.00000   ) 
                     (  -0.00000  -0.00000   ) 
                     (  -0.00000  -0.00000   ) 
                     (  -0.00000  -0.00000   ) 
                     (  -0.00000  -0.00000   ) 
                     (  -0.70711  -0.00000   ) 
                     (  -0.00000  -0.00000   ) 
                     (  -0.00000  -0.00000   ) 
                     (  -0.70711  -0.00000   ) 
  autoval = 0.2539E-01
     Irreps are as follows:

                     mode #   5
                     (  -0.00000   0.00000   ) 
                     (  -0.00000   0.00000   ) 
                     (  -1.00000  -0.00000   ) 
                     (  -0.00000  -0.00000   ) 
                     (  -0.00000  -0.00000   ) 
                     (  -0.00000  -0.00000   ) 
                     (  -0.00000  -0.00000   ) 
                     (  -0.00000  -0.00000   ) 
                     (  -0.00000  -0.00000   ) 
  autoval = 0.4450E-01
     Irreps are as follows:

                     mode #   6
                     (  -0.00000   0.00000   ) 
                     (  -0.00000   0.00000   ) 
                     (  -0.00000   0.00000   ) 
                     (  -0.00000   0.00000   ) 
                     (  -0.00000   0.00000   ) 
                     (  -0.70711  -0.00000   ) 
                     (  -0.00000   0.00000   ) 
                     (  -0.00000   0.00000   ) 
                     (   0.70711   0.00000   ) 
  autoval = 0.6023E+00
     Irreps are as follows:

                     mode #   7
                     (  -0.00000  -0.00000   ) 
                     (  -0.00000  -0.00000   ) 
                     (  -0.00000  -0.00000   ) 
                     (  -0.50000  -0.00000   ) 
                     (  -0.00000  -0.50000   ) 
                     (  -0.00000  -0.00000   ) 
                     (  -0.50000   0.00000   ) 
                     (  -0.00000  -0.50000   ) 
                     (  -0.00000  -0.00000   ) 
  autoval = 0.9822E+00
     Irreps are as follows:

                     mode #   8
                     (  -0.00000   0.00000   ) 
                     (  -0.00000   0.00000   ) 
                     (  -0.00000   0.00000   ) 
                     (  -0.50000  -0.00000   ) 
                     (  -0.00000   0.50000   ) 
                     (  -0.00000   0.00000   ) 
                     (   0.50000   0.00000   ) 
                     (   0.00000  -0.50000   ) 
                     (  -0.00000   0.00000   ) 
  autoval = 0.1650E+01
     Irreps are as follows:

                     mode #   9
                     (  -0.00000  -0.00000   ) 
                     (  -0.00000  -0.00000   ) 
                     (  -0.00000  -0.00000   ) 
                     (  -0.50000  -0.00000   ) 
                     (   0.00000  -0.50000   ) 
                     (  -0.00000  -0.00000   ) 
                     (   0.50000   0.00000   ) 
                     (  -0.00000   0.50000   ) 
                     (  -0.00000  -0.00000   ) 

     Calculation of q =    0.0000000   0.0000000   0.0000000

                                                                                

     bravais-lattice index     =            4
     lattice parameter (alat)  =       5.8772  a.u.
     unit-cell volume          =     897.4163 (a.u.)^3
     number of atoms/cell      =            3
     number of atomic types    =            2
     kinetic-energy cut-off    =      60.0000  Ry
     charge density cut-off    =     240.0000  Ry
     convergence threshold     =      1.0E-03
     beta                      =       0.7000
     number of iterations used =            4
     Exchange-correlation      = SLA-PZ-NOGX-NOGC ( 1  1  0  0 0)
     Non magnetic calculation with spin-orbit

     celldm(1)=    5.87721  celldm(2)=    0.00000  celldm(3)=    5.10446
     celldm(4)=    0.00000  celldm(5)=    0.00000  celldm(6)=    0.00000

     crystal axes: (cart. coord. in units of alat)
               a(1) = (  1.0000  0.0000  0.0000 )  
               a(2) = ( -0.5000  0.8660  0.0000 )  
               a(3) = (  0.0000  0.0000  5.1045 )  

     reciprocal axes: (cart. coord. in units 2 pi/alat)
               b(1) = (  1.0000  0.5774 -0.0000 )  
               b(2) = (  0.0000  1.1547  0.0000 )  
               b(3) = (  0.0000 -0.0000  0.1959 )  


     Atoms inside the unit cell: 

     Cartesian axes

     site n.  atom      mass           positions (alat units)
        1     Mo  95.9400   tau(    1) = (   -0.00000    0.57735    0.00000  )
        2     S   32.0650   tau(    2) = (    0.50000    0.28868    0.49913  )
        3     S   32.0650   tau(    3) = (    0.50000    0.28868   -0.49913  )

     Computing dynamical matrix for 
                    q = (   0.0000000   0.0000000   0.0000000 )

     13 Sym.Ops. (with q -> -q+G )

                                    s                        frac. trans.

      isym =  1     identity                                     

 cryst.   s( 1) = (     1          0          0      )
                  (     0          1          0      )
                  (     0          0          1      )

 cart.    s( 1) = (  1.0000000  0.0000000  0.0000000 )
                  (  0.0000000  1.0000000  0.0000000 )
                  (  0.0000000  0.0000000  1.0000000 )


      isym =  2     inv. 180 deg rotation - cart. axis [0,0,1]   

 cryst.   s( 2) = (     1          0          0      )
                  (     0          1          0      )
                  (     0          0         -1      )

 cart.    s( 2) = (  1.0000000  0.0000000  0.0000000 )
                  (  0.0000000  1.0000000  0.0000000 )
                  (  0.0000000  0.0000000 -1.0000000 )


      isym =  3     120 deg rotation - cryst. axis [0,0,1]       

 cryst.   s( 3) = (     0          1          0      )
                  (    -1         -1          0      )
                  (     0          0          1      )

 cart.    s( 3) = ( -0.5000000 -0.8660254  0.0000000 )
                  (  0.8660254 -0.5000000  0.0000000 )
                  (  0.0000000  0.0000000  1.0000000 )


      isym =  4     120 deg rotation - cryst. axis [0,0,-1]      

 cryst.   s( 4) = (    -1         -1          0      )
                  (     1          0          0      )
                  (     0          0          1      )

 cart.    s( 4) = ( -0.5000000  0.8660254  0.0000000 )
                  ( -0.8660254 -0.5000000  0.0000000 )
                  (  0.0000000  0.0000000  1.0000000 )


      isym =  5     inv.  60 deg rotation - cryst. axis [0,0,1]  

 cryst.   s( 5) = (    -1         -1          0      )
                  (     1          0          0      )
                  (     0          0         -1      )

 cart.    s( 5) = ( -0.5000000  0.8660254  0.0000000 )
                  ( -0.8660254 -0.5000000  0.0000000 )
                  (  0.0000000  0.0000000 -1.0000000 )


      isym =  6     inv.  60 deg rotation - cryst. axis [0,0,-1] 

 cryst.   s( 6) = (     0          1          0      )
                  (    -1         -1          0      )
                  (     0          0         -1      )

 cart.    s( 6) = ( -0.5000000 -0.8660254  0.0000000 )
                  (  0.8660254 -0.5000000  0.0000000 )
                  (  0.0000000  0.0000000 -1.0000000 )


      isym =  7     180 deg rotation - cart. axis [0,1,0]        

 cryst.   s( 7) = (    -1          0          0      )
                  (     1          1          0      )
                  (     0          0         -1      )

 cart.    s( 7) = ( -1.0000000  0.0000000  0.0000000 )
                  (  0.0000000  1.0000000  0.0000000 )
                  (  0.0000000  0.0000000 -1.0000000 )


      isym =  8     inv. 180 deg rotation - cart. axis [1,0,0]   

 cryst.   s( 8) = (    -1          0          0      )
                  (     1          1          0      )
                  (     0          0          1      )

 cart.    s( 8) = ( -1.0000000  0.0000000  0.0000000 )
                  (  0.0000000  1.0000000  0.0000000 )
                  (  0.0000000  0.0000000  1.0000000 )


      isym =  9     180 deg rotation - cryst. axis [1,-1,0]      

 cryst.   s( 9) = (     0         -1          0      )
                  (    -1          0          0      )
                  (     0          0         -1      )

 cart.    s( 9) = (  0.5000000 -0.8660254  0.0000000 )
                  ( -0.8660254 -0.5000000  0.0000000 )
                  (  0.0000000  0.0000000 -1.0000000 )


      isym = 10     180 deg rotation - cryst. axis [2,1,0]       

 cryst.   s(10) = (     1          1          0      )
                  (     0         -1          0      )
                  (     0          0         -1      )

 cart.    s(10) = (  0.5000000  0.8660254  0.0000000 )
                  (  0.8660254 -0.5000000  0.0000000 )
                  (  0.0000000  0.0000000 -1.0000000 )


      isym = 11     inv. 180 deg rotation - cryst. axis [0,1,0]  

 cryst.   s(11) = (     1          1          0      )
                  (     0         -1          0      )
                  (     0          0          1      )

 cart.    s(11) = (  0.5000000  0.8660254  0.0000000 )
                  (  0.8660254 -0.5000000  0.0000000 )
                  (  0.0000000  0.0000000  1.0000000 )


      isym = 12     inv. 180 deg rotation - cryst. axis [1,1,0]  

 cryst.   s(12) = (     0         -1          0      )
                  (    -1          0          0      )
                  (     0          0          1      )

 cart.    s(12) = (  0.5000000 -0.8660254  0.0000000 )
                  ( -0.8660254 -0.5000000  0.0000000 )
                  (  0.0000000  0.0000000  1.0000000 )


     This transformation sends q -> -q+G

      isym = 13     identity                                     

 cryst.   s(13) = (     1          0          0      )
                  (     0          1          0      )
                  (     0          0          1      )

 cart.    s(13) = (  1.0000000  0.0000000  0.0000000 )
                  (  0.0000000  1.0000000  0.0000000 )
                  (  0.0000000  0.0000000  1.0000000 )


     G cutoff =  209.9876  (  56613 G-vectors)     FFT grid: ( 30, 30,150)
     number of k points=     3
                       cart. coord. in units 2pi/alat
        k(    1) = (   0.0000000   0.0000000   0.0000000), wk =   0.1111111
        k(    2) = (   0.0000000   0.3849002   0.0000000), wk =   0.6666667
        k(    3) = (   0.3333333   0.5773503   0.0000000), wk =   0.2222222

                       cryst. coord.
        k(    1) = (   0.0000000   0.0000000   0.0000000), wk =   0.1111111
        k(    2) = (   0.0000000   0.3333333   0.0000000), wk =   0.6666667
        k(    3) = (   0.3333333   0.3333333   0.0000000), wk =   0.2222222

     PseudoPot. # 1 for Mo read from file:
     ./Mo_RL_withPS_PZ.UPF
     MD5 check sum: 75fa0bd84f1d166fc7323d3ac6c2f396
     Pseudo is Norm-conserving + core correction, Zval = 14.0
     Generated using "atomic" code by A. Dal Corso  (Quantum ESPRESSO distribution)
     Using radial grid of 1229 points,  8 beta functions with: 
                l(1) =   0
                l(2) =   0
                l(3) =   1
                l(4) =   1
                l(5) =   2
                l(6) =   2
                l(7) =   2
                l(8) =   2

     PseudoPot. # 2 for  S read from file:
     ./S.pz-hgh.UPF
     MD5 check sum: fb24c143a2a3ea3aba309d3cb9e9e6ec
     Pseudo is Norm-conserving, Zval =  6.0
     Generated in analytical, separable form
     Using radial grid of 1151 points,  3 beta functions with: 
                l(1) =   0
                l(2) =   0
                l(3) =   1

     double point group D_3h (-62m)
     there are  6 classes and  0 irreducible representations
     the character table:

                                          
                                          

     the symmetry operations in each class:
               
               
               
               
               
               


     Electric field:
     Dielectric constant
     Born effective charges in two ways 


     Atomic displacements:
     There are   6 irreducible representations

     Representation     1      1 modes -A'_1  To be done
     Irreps are as follows:

                     mode #   1
                     (  -0.00000   0.00000   ) 
                     (  -0.00000   0.00000   ) 
                     (  -0.00000   0.00000   ) 
                     (   0.00000   0.00000   ) 
                     (   0.00000   0.00000   ) 
                     (  -0.70711  -0.00000   ) 
                     (   0.00000   0.00000   ) 
                     (  -0.00000  -0.00000   ) 
                     (   0.70711   0.00000   ) 

     Representation     2      2 modes -E'  To be done
     Irreps are as follows:

           mode #   2                           mode #   3
           (  -1.00000  -0.00000   )            (  -0.00036  -0.00000   ) 
           (  -0.00036  -0.00000   )            (   1.00000  -0.00000   ) 
           (  -0.00000  -0.00000   )            (   0.00000  -0.00000   ) 
           (  -0.00000   0.00000   )            (  -0.00000  -0.00000   ) 
           (  -0.00000   0.00000   )            (  -0.00000  -0.00000   ) 
           (  -0.00000   0.00000   )            (  -0.00000  -0.00000   ) 
           (  -0.00000   0.00000   )            (  -0.00000  -0.00000   ) 
           (  -0.00000   0.00000   )            (  -0.00000  -0.00000   ) 
           (  -0.00000   0.00000   )            (  -0.00000  -0.00000   ) 

     Representation     3      2 modes -E'  To be done
     Irreps are as follows:

           mode #   4                           mode #   5
           (  -0.00000   0.00000   )            (  -0.00000  -0.00000   ) 
           (  -0.00000   0.00000   )            (  -0.00000  -0.00000   ) 
           (  -0.00000   0.00000   )            (  -0.00000  -0.00000   ) 
           (  -0.00988  -0.00000   )            (  -0.70704  -0.00000   ) 
           (  -0.70704  -0.00000   )            (   0.00988  -0.00000   ) 
           (  -0.00000  -0.00000   )            (  -0.00000  -0.00000   ) 
           (  -0.00988  -0.00000   )            (  -0.70704  -0.00000   ) 
           (  -0.70704  -0.00000   )            (   0.00988  -0.00000   ) 
           (  -0.00000  -0.00000   )            (   0.00000  -0.00000   ) 

     Representation     4      1 modes -A''2  To be done
     Irreps are as follows:

                     mode #   6
                     (   0.00000  -0.00000   ) 
                     (   0.00000  -0.00000   ) 
                     (  -1.00000  -0.00000   ) 
                     (  -0.00000  -0.00000   ) 
                     (  -0.00000  -0.00000   ) 
                     (  -0.00000  -0.00000   ) 
                     (  -0.00000  -0.00000   ) 
                     (  -0.00000  -0.00000   ) 
                     (  -0.00000  -0.00000   ) 

     Representation     5      1 modes -A''2  To be done
     Irreps are as follows:

                     mode #   7
                     (  -0.00000  -0.00000   ) 
                     (  -0.00000  -0.00000   ) 
                     (  -0.00000  -0.00000   ) 
                     (   0.00000  -0.00000   ) 
                     (   0.00000  -0.00000   ) 
                     (  -0.70711  -0.00000   ) 
                     (  -0.00000  -0.00000   ) 
                     (   0.00000  -0.00000   ) 
                     (  -0.70711  -0.00000   ) 

     Representation     6      2 modes -E''  To be done
     Irreps are as follows:

           mode #   8                           mode #   9
           (  -0.00000  -0.00000   )            (  -0.00000  -0.00000   ) 
           (  -0.00000  -0.00000   )            (  -0.00000  -0.00000   ) 
           (  -0.00000  -0.00000   )            (  -0.00000  -0.00000   ) 
           (  -0.70709  -0.00000   )            (  -0.00552  -0.00000   ) 
           (   0.00552  -0.00000   )            (  -0.70709  -0.00000   ) 
           (  -0.00000  -0.00000   )            (  -0.00000  -0.00000   ) 
           (   0.70709  -0.00000   )            (   0.00552  -0.00000   ) 
           (  -0.00552  -0.00000   )            (   0.70709  -0.00000   ) 
           (  -0.00000  -0.00000   )            (   0.00000  -0.00000   ) 



     Alpha used in Ewald sum =   2.3000
     PHONON       :     9.52s CPU         9.69s WALL


     Electric Fields Calculation

      iter #   1 total cpu time :   172.1 secs   av.it.:  11.8
      thresh= 1.000E-02 alpha_mix =  0.700 |ddv_scf|^2 =  5.721E-04

      iter #   2 total cpu time :   225.9 secs   av.it.:  14.7
      thresh= 2.392E-03 alpha_mix =  0.700 |ddv_scf|^2 =  1.267E-02

      iter #   3 total cpu time :   253.4 secs   av.it.:   6.8
      thresh= 1.000E-02 alpha_mix =  0.700 |ddv_scf|^2 =  1.919E-05

     End of electric fields calculation

          Dielectric constant in cartesian axis 

          (       7.288615626       0.000000000       0.000000000 )
          (      -0.000000000       7.288615626      -0.000000000 )
          (       0.000000000       0.000000000       1.918693300 )

          Effective charges (d Force / dE) in cartesian axis

           atom      1   Mo 
      Ex  (        0.82890        0.00000        0.00000 )
      Ey  (        0.00000        0.82890        0.00000 )
      Ez  (       -0.00000       -0.00000      -31.92664 )
           atom      2   S  
      Ex  (        0.96426        0.00000        0.00000 )
      Ey  (        0.00000        0.96426        0.00000 )
      Ez  (        0.00000        0.00000       -3.34971 )
           atom      3   S  
      Ex  (        0.96426       -0.00000        0.00000 )
      Ey  (        0.00000        0.96426        0.00000 )
      Ez  (        0.00000       -0.00000       -3.34971 )


     Representation #  1 mode #   1

     Self-consistent Calculation

      iter #   1 total cpu time :   276.4 secs   av.it.:   9.3
      thresh= 1.000E-02 alpha_mix =  0.700 |ddv_scf|^2 =  6.956E-05

     End of self-consistent calculation

     Convergence has been achieved 


     Representation #  2 modes #   2  3

     Self-consistent Calculation

      iter #   1 total cpu time :   308.6 secs   av.it.:  12.2
      thresh= 1.000E-02 alpha_mix =  0.700 |ddv_scf|^2 =  3.063E-06

     End of self-consistent calculation

     Convergence has been achieved 


     Representation #  3 modes #   4  5

     Self-consistent Calculation

      iter #   1 total cpu time :   336.7 secs   av.it.:   9.3
      thresh= 1.000E-02 alpha_mix =  0.700 |ddv_scf|^2 =  3.017E-08

     End of self-consistent calculation

     Convergence has been achieved 


     Representation #  4 mode #   6

     Self-consistent Calculation

      iter #   1 total cpu time :   355.5 secs   av.it.:  12.3
      thresh= 1.000E-02 alpha_mix =  0.700 |ddv_scf|^2 =  1.489E-03

      iter #   2 total cpu time :   374.8 secs   av.it.:  16.0
      thresh= 3.859E-03 alpha_mix =  0.700 |ddv_scf|^2 =  3.368E-02

      iter #   3 total cpu time :   392.0 secs   av.it.:  14.3
      thresh= 1.000E-02 alpha_mix =  0.700 |ddv_scf|^2 =  1.349E-05

     End of self-consistent calculation

     Convergence has been achieved 


     Representation #  5 mode #   7

     Self-consistent Calculation

      iter #   1 total cpu time :   405.9 secs   av.it.:   9.0
      thresh= 1.000E-02 alpha_mix =  0.700 |ddv_scf|^2 =  1.185E-04

     End of self-consistent calculation

     Convergence has been achieved 


     Representation #  6 modes #   8  9

     Self-consistent Calculation

      iter #   1 total cpu time :   431.5 secs   av.it.:   9.0
      thresh= 1.000E-02 alpha_mix =  0.700 |ddv_scf|^2 =  2.470E-08

     End of self-consistent calculation

     Convergence has been achieved 

     Number of q in the star =    1
     List of q in the star:
          1   0.000000000   0.000000000   0.000000000

          Dielectric constant in cartesian axis 

          (       7.288615626       0.000000000       0.000000000 )
          (      -0.000000000       7.288615626      -0.000000000 )
          (       0.000000000       0.000000000       1.918693300 )

          Effective charges (d Force / dE) in cartesian axis

           atom      1   Mo 
      Ex  (        0.82890        0.00000        0.00000 )
      Ey  (        0.00000        0.82890        0.00000 )
      Ez  (       -0.00000       -0.00000      -31.92664 )
           atom      2   S  
      Ex  (        0.96426        0.00000        0.00000 )
      Ey  (        0.00000        0.96426        0.00000 )
      Ez  (        0.00000        0.00000       -3.34971 )
           atom      3   S  
      Ex  (        0.96426       -0.00000        0.00000 )
      Ey  (        0.00000        0.96426        0.00000 )
      Ez  (        0.00000       -0.00000       -3.34971 )

          Effective charges (d P / du) in cartesian axis 

           atom      1   Mo 
      Px  (       -7.89640        0.00000        0.00000 )
      Py  (        0.00000       -7.89640        0.00000 )
      Pz  (        0.00000       -0.00000        1.04960 )
           atom      2   S  
      Px  (       -0.63182        0.00000        0.00000 )
      Py  (        0.00000       -0.63182       -0.00000 )
      Pz  (        0.00000       -0.00000      -28.12813 )
           atom      3   S  
      Px  (       -0.63182        0.00000        0.00000 )
      Py  (        0.00000       -0.63182        0.00000 )
      Pz  (        0.00000        0.00000      -28.12813 )

     Diagonalizing the dynamical matrix

     q = (    0.000000000   0.000000000   0.000000000 ) 

 **************************************************************************
     freq (    1) =    -115.093740 [THz] =   -3839.113938 [cm-1]
     freq (    2) =    -101.339573 [THz] =   -3380.324312 [cm-1]
     freq (    3) =     -82.126988 [THz] =   -2739.461442 [cm-1]
     freq (    4) =     -82.126988 [THz] =   -2739.461442 [cm-1]
     freq (    5) =     -29.493631 [THz] =    -983.801621 [cm-1]
     freq (    6) =     -29.493631 [THz] =    -983.801621 [cm-1]
     freq (    7) =     -29.300139 [THz] =    -977.347424 [cm-1]
     freq (    8) =     -29.300139 [THz] =    -977.347424 [cm-1]
     freq (    9) =      69.853574 [THz] =    2330.064428 [cm-1]
 **************************************************************************

     Mode symmetry, D_3h (-62m) point group:

     freq (  1 -  1) =      -3839.1  [cm-1]   --> A'_1            R  
     freq (  2 -  2) =      -3380.3  [cm-1]   --> A''2            I  
     freq (  3 -  4) =      -2739.5  [cm-1]   --> E'              I+R
     freq (  5 -  6) =       -983.8  [cm-1]   --> E'              I+R
     freq (  7 -  8) =       -977.3  [cm-1]   --> E''             R  
     freq (  9 -  9) =       2330.1  [cm-1]   --> A''2            I  
     electron-phonon interaction (to be used in YAMBO)  ...


     Calculation of q =    0.0000000   0.3849002   0.0000000

     G-vector sticks info
     --------------------
     sticks:   dense  smooth     PW     G-vecs:    dense   smooth      PW
     Sum         583     583    187                56613    56613   10447



     bravais-lattice index     =            4
     lattice parameter (alat)  =       5.8772  a.u.
     unit-cell volume          =     897.4163 (a.u.)^3
     number of atoms/cell      =            3
     number of atomic types    =            2
     number of electrons       =        26.00
     number of Kohn-Sham states=           32
     kinetic-energy cutoff     =      60.0000  Ry
     charge density cutoff     =     240.0000  Ry
     Exchange-correlation      = SLA-PZ-NOGX-NOGC ( 1  1  0  0 0)
     Non magnetic calculation with spin-orbit


     celldm(1)=   5.877208  celldm(2)=   0.000000  celldm(3)=   5.104465
     celldm(4)=   0.000000  celldm(5)=   0.000000  celldm(6)=   0.000000

     crystal axes: (cart. coord. in units of alat)
               a(1) = (   1.000000   0.000000   0.000000 )  
               a(2) = (  -0.500000   0.866025   0.000000 )  
               a(3) = (   0.000000   0.000000   5.104465 )  

     reciprocal axes: (cart. coord. in units 2 pi/alat)
               b(1) = (  1.000000  0.577350 -0.000000 )  
               b(2) = (  0.000000  1.154701  0.000000 )  
               b(3) = (  0.000000 -0.000000  0.195907 )  


     PseudoPot. # 1 for Mo read from file:
     ./Mo_RL_withPS_PZ.UPF
     MD5 check sum: 75fa0bd84f1d166fc7323d3ac6c2f396
     Pseudo is Norm-conserving + core correction, Zval = 14.0
     Generated using "atomic" code by A. Dal Corso  (Quantum ESPRESSO distribution)
     Using radial grid of 1229 points,  8 beta functions with: 
                l(1) =   0
                l(2) =   0
                l(3) =   1
                l(4) =   1
                l(5) =   2
                l(6) =   2
                l(7) =   2
                l(8) =   2

     PseudoPot. # 2 for  S read from file:
     ./S.pz-hgh.UPF
     MD5 check sum: fb24c143a2a3ea3aba309d3cb9e9e6ec
     Pseudo is Norm-conserving, Zval =  6.0
     Generated in analytical, separable form
     Using radial grid of 1151 points,  3 beta functions with: 
                l(1) =   0
                l(2) =   0
                l(3) =   1

     atomic species   valence    mass     pseudopotential
        Mo            14.00    95.94000     Mo( 1.00)
        S              6.00    32.06500      S( 1.00)

     12 Sym. Ops. (no inversion) found


                                    s                        frac. trans.

      isym =  1     identity                                     

 cryst.   s( 1) = (     1          0          0      )
                  (     0          1          0      )
                  (     0          0          1      )

 cart.    s( 1) = (  1.0000000  0.0000000  0.0000000 )
                  (  0.0000000  1.0000000  0.0000000 )
                  (  0.0000000  0.0000000  1.0000000 )


      isym =  2     inv. 180 deg rotation - cart. axis [0,0,1]   

 cryst.   s( 2) = (     1          0          0      )
                  (     0          1          0      )
                  (     0          0         -1      )

 cart.    s( 2) = (  1.0000000  0.0000000  0.0000000 )
                  (  0.0000000  1.0000000  0.0000000 )
                  (  0.0000000  0.0000000 -1.0000000 )


      isym =  3     180 deg rotation - cart. axis [0,1,0]        

 cryst.   s( 3) = (    -1          0          0      )
                  (     1          1          0      )
                  (     0          0         -1      )

 cart.    s( 3) = ( -1.0000000  0.0000000  0.0000000 )
                  (  0.0000000  1.0000000  0.0000000 )
                  (  0.0000000  0.0000000 -1.0000000 )


      isym =  4     inv. 180 deg rotation - cart. axis [1,0,0]   

 cryst.   s( 4) = (    -1          0          0      )
                  (     1          1          0      )
                  (     0          0          1      )

 cart.    s( 4) = ( -1.0000000  0.0000000  0.0000000 )
                  (  0.0000000  1.0000000  0.0000000 )
                  (  0.0000000  0.0000000  1.0000000 )


      isym =  5     inv.  60 deg rotation - cryst. axis [0,0,1]  

 cryst.   s( 5) = (    -1         -1          0      )
                  (     1          0          0      )
                  (     0          0         -1      )

 cart.    s( 5) = ( -0.5000000  0.8660254  0.0000000 )
                  ( -0.8660254 -0.5000000  0.0000000 )
                  (  0.0000000  0.0000000 -1.0000000 )


      isym =  6     inv.  60 deg rotation - cryst. axis [0,0,-1] 

 cryst.   s( 6) = (     0          1          0      )
                  (    -1         -1          0      )
                  (     0          0         -1      )

 cart.    s( 6) = ( -0.5000000 -0.8660254  0.0000000 )
                  (  0.8660254 -0.5000000  0.0000000 )
                  (  0.0000000  0.0000000 -1.0000000 )


      isym =  7     120 deg rotation - cryst. axis [0,0,1]       

 cryst.   s( 7) = (     0          1          0      )
                  (    -1         -1          0      )
                  (     0          0          1      )

 cart.    s( 7) = ( -0.5000000 -0.8660254  0.0000000 )
                  (  0.8660254 -0.5000000  0.0000000 )
                  (  0.0000000  0.0000000  1.0000000 )


      isym =  8     120 deg rotation - cryst. axis [0,0,-1]      

 cryst.   s( 8) = (    -1         -1          0      )
                  (     1          0          0      )
                  (     0          0          1      )

 cart.    s( 8) = ( -0.5000000  0.8660254  0.0000000 )
                  ( -0.8660254 -0.5000000  0.0000000 )
                  (  0.0000000  0.0000000  1.0000000 )


      isym =  9     180 deg rotation - cryst. axis [1,-1,0]      

 cryst.   s( 9) = (     0         -1          0      )
                  (    -1          0          0      )
                  (     0          0         -1      )

 cart.    s( 9) = (  0.5000000 -0.8660254  0.0000000 )
                  ( -0.8660254 -0.5000000  0.0000000 )
                  (  0.0000000  0.0000000 -1.0000000 )


      isym = 10     180 deg rotation - cryst. axis [2,1,0]       

 cryst.   s(10) = (     1          1          0      )
                  (     0         -1          0      )
                  (     0          0         -1      )

 cart.    s(10) = (  0.5000000  0.8660254  0.0000000 )
                  (  0.8660254 -0.5000000  0.0000000 )
                  (  0.0000000  0.0000000 -1.0000000 )


      isym = 11     inv. 180 deg rotation - cryst. axis [0,1,0]  

 cryst.   s(11) = (     1          1          0      )
                  (     0         -1          0      )
                  (     0          0          1      )

 cart.    s(11) = (  0.5000000  0.8660254  0.0000000 )
                  (  0.8660254 -0.5000000  0.0000000 )
                  (  0.0000000  0.0000000  1.0000000 )


      isym = 12     inv. 180 deg rotation - cryst. axis [1,1,0]  

 cryst.   s(12) = (     0         -1          0      )
                  (    -1          0          0      )
                  (     0          0          1      )

 cart.    s(12) = (  0.5000000 -0.8660254  0.0000000 )
                  ( -0.8660254 -0.5000000  0.0000000 )
                  (  0.0000000  0.0000000  1.0000000 )


     double point group D_3h (-62m)
     there are  9 classes and  3 irreducible representations
     the character table:

       E     -E    2C3   -2C3   3C2'  s_h  2S3   -2S3   3s_v
                               -3C2' -s_h'             -3s_v
G_7    2.00 -2.00  1.00 -1.00  0.00  0.00  1.73 -1.73  0.00
G_8    2.00 -2.00  1.00 -1.00  0.00  0.00 -1.73  1.73  0.00
G_9    2.00 -2.00 -2.00  2.00  0.00  0.00  0.00  0.00  0.00

     the symmetry operations in each class:
     E             1
      3s_v-3s_v    2   -2
      3C2'-3C2'    3   -3    9   10  -10   -9
      3s_v-3s_v    4   -4   12  -11   11  -12
     2S3           5    6
     2C3           7    8
     -E           -1
     -2S3         -5   -6
     -2C3         -7   -8

   Cartesian axes

     site n.     atom                  positions (alat units)
         1           Mo  tau(   1) = (  -0.0000000   0.5773503   0.0000000  )
         2           S   tau(   2) = (   0.5000000   0.2886751   0.4991315  )
         3           S   tau(   3) = (   0.5000000   0.2886751  -0.4991315  )

   Crystallographic axes

     site n.     atom                  positions (cryst. coord.)
         1           Mo  tau(   1) = (  0.3333333  0.6666667  0.0000000  )
         2           S   tau(   2) = (  0.6666667  0.3333333  0.0977833  )
         3           S   tau(   3) = (  0.6666667  0.3333333 -0.0977833  )

     number of k points=    12
                       cart. coord. in units 2pi/alat
        k(    1) = (   0.0000000   0.0000000   0.0000000), wk =   0.1111111
        k(    2) = (   0.0000000   0.3849002   0.0000000), wk =   0.0000000
        k(    3) = (   0.0000000   0.3849002   0.0000000), wk =   0.1111111
        k(    4) = (   0.0000000   0.7698004   0.0000000), wk =   0.0000000
        k(    5) = (   0.3333333   0.5773503   0.0000000), wk =   0.2222222
        k(    6) = (   0.3333333   0.9622504   0.0000000), wk =   0.0000000
        k(    7) = (   0.3333333  -0.1924501   0.0000000), wk =   0.2222222
        k(    8) = (   0.3333333   0.1924501   0.0000000), wk =   0.0000000
        k(    9) = (   0.0000000  -0.3849002   0.0000000), wk =   0.1111111
        k(   10) = (   0.0000000   0.0000000   0.0000000), wk =   0.0000000
        k(   11) = (  -0.3333333   0.1924501   0.0000000), wk =   0.2222222
        k(   12) = (  -0.3333333   0.5773503   0.0000000), wk =   0.0000000

                       cryst. coord.
        k(    1) = (   0.0000000   0.0000000   0.0000000), wk =   0.1111111
        k(    2) = (   0.0000000   0.3333333   0.0000000), wk =   0.0000000
        k(    3) = (   0.0000000   0.3333333   0.0000000), wk =   0.1111111
        k(    4) = (   0.0000000   0.6666667   0.0000000), wk =   0.0000000
        k(    5) = (   0.3333333   0.3333333   0.0000000), wk =   0.2222222
        k(    6) = (   0.3333333   0.6666667   0.0000000), wk =   0.0000000
        k(    7) = (   0.3333333  -0.3333333   0.0000000), wk =   0.2222222
        k(    8) = (   0.3333333   0.0000000   0.0000000), wk =   0.0000000
        k(    9) = (   0.0000000  -0.3333333   0.0000000), wk =   0.1111111
        k(   10) = (   0.0000000   0.0000000   0.0000000), wk =   0.0000000
        k(   11) = (  -0.3333333   0.3333333   0.0000000), wk =   0.2222222
        k(   12) = (  -0.3333333   0.6666667   0.0000000), wk =   0.0000000

     Dense  grid:    56613 G-vectors     FFT dimensions: (  30,  30, 150)

     Largest allocated arrays     est. size (Mb)     dimensions
        Kohn-Sham Wavefunctions         6.92 Mb     (   14174,   32)
        NL pseudopotentials             4.11 Mb     (    7087,   38)
        Each V/rho on FFT grid          2.06 Mb     (  135000)
        Each G-vector array             0.43 Mb     (   56613)
        G-vector shells                 0.02 Mb     (    2835)
     Largest temporary arrays     est. size (Mb)     dimensions
        Auxiliary wavefunctions        27.68 Mb     (   14174,  128)
        Each subspace H/S matrix        0.25 Mb     (     128,  128)
        Each <psi_i|beta_j> matrix      0.04 Mb     (      38,   2,   32)

     Check: negative/imaginary core charge=   -0.000110    0.000000

     The potential is recalculated from file :
     ./_ph0/mos2.q_2/mos2.save/charge-density.dat

     Starting wfc are   56 atomic wfcs

     Band Structure Calculation
     Davidson diagonalization with overlap

     Computing kpt #:     1
     total cpu time spent up to now is        7.4 secs

     Computing kpt #:     2
     total cpu time spent up to now is       15.9 secs

     Computing kpt #:     3
     total cpu time spent up to now is       24.4 secs

     Computing kpt #:     4
     total cpu time spent up to now is       32.9 secs

     Computing kpt #:     5
     total cpu time spent up to now is       39.6 secs

     Computing kpt #:     6
     total cpu time spent up to now is       48.1 secs

     Computing kpt #:     7
     total cpu time spent up to now is       56.6 secs

     Computing kpt #:     8
     total cpu time spent up to now is       65.1 secs

     Computing kpt #:     9
     total cpu time spent up to now is       73.6 secs

     Computing kpt #:    10
     total cpu time spent up to now is       80.1 secs

     Computing kpt #:    11
     total cpu time spent up to now is       88.6 secs

     Computing kpt #:    12
     total cpu time spent up to now is       95.3 secs

     ethr =  3.85E-11,  avg # of iterations = 19.5

     total cpu time spent up to now is       95.3 secs

     End of band structure calculation

          k = 0.0000 0.0000 0.0000 (  7087 PWs)   bands (ev):

   -59.8563 -59.8563 -35.9006 -35.9006 -33.4873 -33.4873 -33.2110 -33.2110
   -13.9352 -13.9352 -12.5704 -12.5704  -5.4681  -5.4681  -2.2466  -2.2466
    -2.1573  -2.1573  -1.5728  -1.5728  -1.0814  -1.0814  -1.0290  -1.0290
     0.2432   0.2432   3.3423   3.3423   3.3786   3.3786   3.6316   3.6316

     occupation numbers 
     1.0000   1.0000   1.0000   1.0000   1.0000   1.0000   1.0000   1.0000
     1.0000   1.0000   1.0000   1.0000   1.0000   1.0000   1.0000   1.0000
     1.0000   1.0000   1.0000   1.0000   1.0000   1.0000   1.0000   1.0000
     1.0000   1.0000   0.0000   0.0000   0.0000   0.0000   0.0000   0.0000

          k = 0.0000 0.3849 0.0000 (  7036 PWs)   bands (ev):

   -59.8127 -59.8127 -35.9994 -35.9994 -33.5864 -33.5864 -33.3896 -33.3896
   -12.4733 -12.4733 -11.9788 -11.9788  -5.0944  -5.0944  -4.0431  -4.0431
    -3.5843  -3.5843  -2.5147  -2.5147  -1.3237  -1.3237  -0.8682  -0.8682
    -0.6401  -0.6401   2.7956   2.7956   2.8952   2.8952   3.9554   3.9554

     occupation numbers 
     0.0000   0.0000   0.0000   0.0000   0.0000   0.0000   0.0000   0.0000
     0.0000   0.0000   0.0000   0.0000   0.0000   0.0000   0.0000   0.0000
     0.0000   0.0000   0.0000   0.0000   0.0000   0.0000   0.0000   0.0000
     0.0000   0.0000   0.0000   0.0000   0.0000   0.0000   0.0000   0.0000

          k = 0.0000 0.3849 0.0000 (  7036 PWs)   bands (ev):

   -59.8127 -59.8127 -35.9994 -35.9994 -33.5864 -33.5864 -33.3896 -33.3896
   -12.4733 -12.4733 -11.9788 -11.9788  -5.0944  -5.0944  -4.0431  -4.0431
    -3.5843  -3.5843  -2.5147  -2.5147  -1.3237  -1.3237  -0.8682  -0.8682
    -0.6401  -0.6401   2.7956   2.7956   2.8952   2.8952   3.9554   3.9554

     occupation numbers 
     1.0000   1.0000   1.0000   1.0000   1.0000   1.0000   1.0000   1.0000
     1.0000   1.0000   1.0000   1.0000   1.0000   1.0000   1.0000   1.0000
     1.0000   1.0000   1.0000   1.0000   1.0000   1.0000   1.0000   1.0000
     1.0000   1.0000   0.0000   0.0000   0.0000   0.0000   0.0000   0.0000

          k = 0.0000 0.7698 0.0000 (  7036 PWs)   bands (ev):

   -59.8127 -59.8127 -35.9994 -35.9994 -33.5864 -33.5864 -33.3896 -33.3896
   -12.4733 -12.4733 -11.9788 -11.9788  -5.0944  -5.0944  -4.0431  -4.0431
    -3.5843  -3.5843  -2.5147  -2.5147  -1.3237  -1.3237  -0.8682  -0.8682
    -0.6401  -0.6401   2.7956   2.7956   2.8952   2.8952   3.9554   3.9554

     occupation numbers 
     0.0000   0.0000   0.0000   0.0000   0.0000   0.0000   0.0000   0.0000
     0.0000   0.0000   0.0000   0.0000   0.0000   0.0000   0.0000   0.0000
     0.0000   0.0000   0.0000   0.0000   0.0000   0.0000   0.0000   0.0000
     0.0000   0.0000   0.0000   0.0000   0.0000   0.0000   0.0000   0.0000

          k = 0.3333 0.5774 0.0000 (  7047 PWs)   bands (ev):

   -59.7932 -59.7932 -36.0630 -36.0329 -33.6086 -33.5494 -33.5451 -33.5286
   -11.5565 -11.5455 -11.5410 -11.4712  -5.3585  -5.3364  -4.4428  -4.4424
    -3.9760  -3.8485  -3.2161  -3.1712  -2.6616  -2.6589  -1.8465  -1.8234
     0.3962   0.5241   2.3189   2.3238   3.4062   3.4535   4.2098   4.3431

     occupation numbers 
     1.0000   1.0000   1.0000   1.0000   1.0000   1.0000   1.0000   1.0000
     1.0000   1.0000   1.0000   1.0000   1.0000   1.0000   1.0000   1.0000
     1.0000   1.0000   1.0000   1.0000   1.0000   1.0000   1.0000   1.0000
     1.0000   1.0000   0.0000   0.0000   0.0000   0.0000   0.0000   0.0000

          k = 0.3333 0.9623 0.0000 (  7036 PWs)   bands (ev):

   -59.8127 -59.8127 -35.9994 -35.9994 -33.5864 -33.5864 -33.3896 -33.3896
   -12.4733 -12.4733 -11.9788 -11.9788  -5.0944  -5.0944  -4.0431  -4.0431
    -3.5843  -3.5843  -2.5147  -2.5147  -1.3237  -1.3237  -0.8682  -0.8682
    -0.6401  -0.6401   2.7956   2.7956   2.8952   2.8952   3.9554   3.9554

     occupation numbers 
     0.0000   0.0000   0.0000   0.0000   0.0000   0.0000   0.0000   0.0000
     0.0000   0.0000   0.0000   0.0000   0.0000   0.0000   0.0000   0.0000
     0.0000   0.0000   0.0000   0.0000   0.0000   0.0000   0.0000   0.0000
     0.0000   0.0000   0.0000   0.0000   0.0000   0.0000   0.0000   0.0000

          k = 0.3333-0.1925 0.0000 (  7036 PWs)   bands (ev):

   -59.8127 -59.8127 -35.9994 -35.9994 -33.5864 -33.5864 -33.3896 -33.3896
   -12.4733 -12.4733 -11.9788 -11.9788  -5.0944  -5.0944  -4.0431  -4.0431
    -3.5843  -3.5843  -2.5147  -2.5147  -1.3237  -1.3237  -0.8682  -0.8682
    -0.6401  -0.6401   2.7956   2.7956   2.8952   2.8952   3.9554   3.9554

     occupation numbers 
     1.0000   1.0000   1.0000   1.0000   1.0000   1.0000   1.0000   1.0000
     1.0000   1.0000   1.0000   1.0000   1.0000   1.0000   1.0000   1.0000
     1.0000   1.0000   1.0000   1.0000   1.0000   1.0000   1.0000   1.0000
     1.0000   1.0000   0.0000   0.0000   0.0000   0.0000   0.0000   0.0000

          k = 0.3333 0.1925 0.0000 (  7036 PWs)   bands (ev):

   -59.8127 -59.8127 -35.9994 -35.9994 -33.5864 -33.5864 -33.3896 -33.3896
   -12.4733 -12.4733 -11.9788 -11.9788  -5.0944  -5.0944  -4.0431  -4.0431
    -3.5843  -3.5843  -2.5147  -2.5147  -1.3237  -1.3237  -0.8682  -0.8682
    -0.6401  -0.6401   2.7956   2.7956   2.8952   2.8952   3.9554   3.9554

     occupation numbers 
     0.0000   0.0000   0.0000   0.0000   0.0000   0.0000   0.0000   0.0000
     0.0000   0.0000   0.0000   0.0000   0.0000   0.0000   0.0000   0.0000
     0.0000   0.0000   0.0000   0.0000   0.0000   0.0000   0.0000   0.0000
     0.0000   0.0000   0.0000   0.0000   0.0000   0.0000   0.0000   0.0000

          k = 0.0000-0.3849 0.0000 (  7036 PWs)   bands (ev):

   -59.8127 -59.8127 -35.9994 -35.9994 -33.5864 -33.5864 -33.3896 -33.3896
   -12.4733 -12.4733 -11.9788 -11.9788  -5.0944  -5.0944  -4.0431  -4.0431
    -3.5843  -3.5843  -2.5147  -2.5147  -1.3237  -1.3237  -0.8682  -0.8682
    -0.6401  -0.6401   2.7956   2.7956   2.8952   2.8952   3.9554   3.9554

     occupation numbers 
     1.0000   1.0000   1.0000   1.0000   1.0000   1.0000   1.0000   1.0000
     1.0000   1.0000   1.0000   1.0000   1.0000   1.0000   1.0000   1.0000
     1.0000   1.0000   1.0000   1.0000   1.0000   1.0000   1.0000   1.0000
     1.0000   1.0000   0.0000   0.0000   0.0000   0.0000   0.0000   0.0000

          k = 0.0000 0.0000 0.0000 (  7087 PWs)   bands (ev):

   -59.8563 -59.8563 -35.9006 -35.9006 -33.4873 -33.4873 -33.2110 -33.2110
   -13.9352 -13.9352 -12.5704 -12.5704  -5.4681  -5.4681  -2.2466  -2.2466
    -2.1573  -2.1573  -1.5728  -1.5728  -1.0814  -1.0814  -1.0290  -1.0290
     0.2432   0.2432   3.3423   3.3423   3.3786   3.3786   3.6316   3.6316

     occupation numbers 
     0.0000   0.0000   0.0000   0.0000   0.0000   0.0000   0.0000   0.0000
     0.0000   0.0000   0.0000   0.0000   0.0000   0.0000   0.0000   0.0000
     0.0000   0.0000   0.0000   0.0000   0.0000   0.0000   0.0000   0.0000
     0.0000   0.0000   0.0000   0.0000   0.0000   0.0000   0.0000   0.0000

          k =-0.3333 0.1925 0.0000 (  7036 PWs)   bands (ev):

   -59.8127 -59.8127 -35.9994 -35.9994 -33.5864 -33.5864 -33.3896 -33.3896
   -12.4733 -12.4733 -11.9788 -11.9788  -5.0944  -5.0944  -4.0431  -4.0431
    -3.5843  -3.5843  -2.5147  -2.5147  -1.3237  -1.3237  -0.8682  -0.8682
    -0.6401  -0.6401   2.7956   2.7956   2.8952   2.8952   3.9554   3.9554

     occupation numbers 
     1.0000   1.0000   1.0000   1.0000   1.0000   1.0000   1.0000   1.0000
     1.0000   1.0000   1.0000   1.0000   1.0000   1.0000   1.0000   1.0000
     1.0000   1.0000   1.0000   1.0000   1.0000   1.0000   1.0000   1.0000
     1.0000   1.0000   0.0000   0.0000   0.0000   0.0000   0.0000   0.0000

          k =-0.3333 0.5774 0.0000 (  7047 PWs)   bands (ev):

   -59.7932 -59.7932 -36.0630 -36.0329 -33.6086 -33.5494 -33.5451 -33.5286
   -11.5565 -11.5455 -11.5410 -11.4712  -5.3585  -5.3364  -4.4428  -4.4424
    -3.9760  -3.8485  -3.2161  -3.1712  -2.6616  -2.6589  -1.8465  -1.8234
     0.3962   0.5241   2.3189   2.3238   3.4062   3.4535   4.2098   4.3431

     occupation numbers 
     0.0000   0.0000   0.0000   0.0000   0.0000   0.0000   0.0000   0.0000
     0.0000   0.0000   0.0000   0.0000   0.0000   0.0000   0.0000   0.0000
     0.0000   0.0000   0.0000   0.0000   0.0000   0.0000   0.0000   0.0000
     0.0000   0.0000   0.0000   0.0000   0.0000   0.0000   0.0000   0.0000

     highest occupied, lowest unoccupied level (ev):     0.5241    2.3189

     Writing output data file mos2.save

                                                                                

     bravais-lattice index     =            4
     lattice parameter (alat)  =       5.8772  a.u.
     unit-cell volume          =     897.4163 (a.u.)^3
     number of atoms/cell      =            3
     number of atomic types    =            2
     kinetic-energy cut-off    =      60.0000  Ry
     charge density cut-off    =     240.0000  Ry
     convergence threshold     =      1.0E-03
     beta                      =       0.7000
     number of iterations used =            4
     Exchange-correlation      = SLA-PZ-NOGX-NOGC ( 1  1  0  0 0)
     Non magnetic calculation with spin-orbit

     celldm(1)=    5.87721  celldm(2)=    0.00000  celldm(3)=    5.10446
     celldm(4)=    0.00000  celldm(5)=    0.00000  celldm(6)=    0.00000

     crystal axes: (cart. coord. in units of alat)
               a(1) = (  1.0000  0.0000  0.0000 )  
               a(2) = ( -0.5000  0.8660  0.0000 )  
               a(3) = (  0.0000  0.0000  5.1045 )  

     reciprocal axes: (cart. coord. in units 2 pi/alat)
               b(1) = (  1.0000  0.5774 -0.0000 )  
               b(2) = (  0.0000  1.1547  0.0000 )  
               b(3) = (  0.0000 -0.0000  0.1959 )  


     Atoms inside the unit cell: 

     Cartesian axes

     site n.  atom      mass           positions (alat units)
        1     Mo  95.9400   tau(    1) = (   -0.00000    0.57735    0.00000  )
        2     S   32.0650   tau(    2) = (    0.50000    0.28868    0.49913  )
        3     S   32.0650   tau(    3) = (    0.50000    0.28868   -0.49913  )

     Computing dynamical matrix for 
                    q = (   0.0000000   0.3849002   0.0000000 )

      4 Sym.Ops. (no q -> -q+G )

                                    s                        frac. trans.

      isym =  1     identity                                     

 cryst.   s( 1) = (     1          0          0      )
                  (     0          1          0      )
                  (     0          0          1      )

 cart.    s( 1) = (  1.0000000  0.0000000  0.0000000 )
                  (  0.0000000  1.0000000  0.0000000 )
                  (  0.0000000  0.0000000  1.0000000 )


      isym =  2     inv. 180 deg rotation - cart. axis [0,0,1]   

 cryst.   s( 2) = (     1          0          0      )
                  (     0          1          0      )
                  (     0          0         -1      )

 cart.    s( 2) = (  1.0000000  0.0000000  0.0000000 )
                  (  0.0000000  1.0000000  0.0000000 )
                  (  0.0000000  0.0000000 -1.0000000 )


      isym =  3     180 deg rotation - cart. axis [0,1,0]        

 cryst.   s( 3) = (    -1          0          0      )
                  (     1          1          0      )
                  (     0          0         -1      )

 cart.    s( 3) = ( -1.0000000  0.0000000  0.0000000 )
                  (  0.0000000  1.0000000  0.0000000 )
                  (  0.0000000  0.0000000 -1.0000000 )


      isym =  4     inv. 180 deg rotation - cart. axis [1,0,0]   

 cryst.   s( 4) = (    -1          0          0      )
                  (     1          1          0      )
                  (     0          0          1      )

 cart.    s( 4) = ( -1.0000000  0.0000000  0.0000000 )
                  (  0.0000000  1.0000000  0.0000000 )
                  (  0.0000000  0.0000000  1.0000000 )


     G cutoff =  209.9876  (  56613 G-vectors)     FFT grid: ( 30, 30,150)
     number of k points=    12
                       cart. coord. in units 2pi/alat
        k(    1) = (   0.0000000   0.0000000   0.0000000), wk =   0.1111111
        k(    2) = (   0.0000000   0.3849002   0.0000000), wk =   0.0000000
        k(    3) = (   0.0000000   0.3849002   0.0000000), wk =   0.1111111
        k(    4) = (   0.0000000   0.7698004   0.0000000), wk =   0.0000000
        k(    5) = (   0.3333333   0.5773503   0.0000000), wk =   0.2222222
        k(    6) = (   0.3333333   0.9622504   0.0000000), wk =   0.0000000
        k(    7) = (   0.3333333  -0.1924501   0.0000000), wk =   0.2222222
        k(    8) = (   0.3333333   0.1924501   0.0000000), wk =   0.0000000
        k(    9) = (   0.0000000  -0.3849002   0.0000000), wk =   0.1111111
        k(   10) = (   0.0000000   0.0000000   0.0000000), wk =   0.0000000
        k(   11) = (  -0.3333333   0.1924501   0.0000000), wk =   0.2222222
        k(   12) = (  -0.3333333   0.5773503   0.0000000), wk =   0.0000000

                       cryst. coord.
        k(    1) = (   0.0000000   0.0000000   0.0000000), wk =   0.1111111
        k(    2) = (   0.0000000   0.3333333   0.0000000), wk =   0.0000000
        k(    3) = (   0.0000000   0.3333333   0.0000000), wk =   0.1111111
        k(    4) = (   0.0000000   0.6666667   0.0000000), wk =   0.0000000
        k(    5) = (   0.3333333   0.3333333   0.0000000), wk =   0.2222222
        k(    6) = (   0.3333333   0.6666667   0.0000000), wk =   0.0000000
        k(    7) = (   0.3333333  -0.3333333   0.0000000), wk =   0.2222222
        k(    8) = (   0.3333333   0.0000000   0.0000000), wk =   0.0000000
        k(    9) = (   0.0000000  -0.3333333   0.0000000), wk =   0.1111111
        k(   10) = (   0.0000000   0.0000000   0.0000000), wk =   0.0000000
        k(   11) = (  -0.3333333   0.3333333   0.0000000), wk =   0.2222222
        k(   12) = (  -0.3333333   0.6666667   0.0000000), wk =   0.0000000

     PseudoPot. # 1 for Mo read from file:
     ./Mo_RL_withPS_PZ.UPF
     MD5 check sum: 75fa0bd84f1d166fc7323d3ac6c2f396
     Pseudo is Norm-conserving + core correction, Zval = 14.0
     Generated using "atomic" code by A. Dal Corso  (Quantum ESPRESSO distribution)
     Using radial grid of 1229 points,  8 beta functions with: 
                l(1) =   0
                l(2) =   0
                l(3) =   1
                l(4) =   1
                l(5) =   2
                l(6) =   2
                l(7) =   2
                l(8) =   2

     PseudoPot. # 2 for  S read from file:
     ./S.pz-hgh.UPF
     MD5 check sum: fb24c143a2a3ea3aba309d3cb9e9e6ec
     Pseudo is Norm-conserving, Zval =  6.0
     Generated in analytical, separable form
     Using radial grid of 1151 points,  3 beta functions with: 
                l(1) =   0
                l(2) =   0
                l(3) =   1

     double point group C_2v (mm2) 
     there are  4 classes and  3 irreducible representations
     the character table:

       E     -E    2C3   -2C3 
                              
G_7    2.00 -2.00  1.00 -1.00
G_8    2.00 -2.00  1.00 -1.00
G_9    2.00 -2.00 -2.00  2.00

     the symmetry operations in each class:
     E             1
      3s_v-3s_v    2   -2
      3C2'-3C2'    3   -3    9   10  -10   -9
      3s_v-3s_v    4   -4   12  -11   11  -12


     Atomic displacements:
     There are   9 irreducible representations

     Representation     1      1 modes -A_1  D_1  S_1  To be done
     Irreps are as follows:

                     mode #   1
                     (  -0.00000   0.00000   ) 
                     (  -1.00000  -0.00000   ) 
                     (  -0.00000  -0.00000   ) 
                     (  -0.00000  -0.00000   ) 
                     (  -0.00000  -0.00000   ) 
                     (  -0.00000  -0.00000   ) 
                     (  -0.00000  -0.00000   ) 
                     (  -0.00000  -0.00000   ) 
                     (  -0.00000  -0.00000   ) 

     Representation     2      1 modes -A_1  D_1  S_1  To be done
     Irreps are as follows:

                     mode #   2
                     (  -0.00000  -0.00000   ) 
                     (  -0.00000  -0.00000   ) 
                     (  -0.00000  -0.00000   ) 
                     (   0.00000  -0.00000   ) 
                     (  -0.27652   0.00000   ) 
                     (  -0.58735   0.28028   ) 
                     (   0.00000  -0.00000   ) 
                     (  -0.27652   0.00000   ) 
                     (   0.58735  -0.28028   ) 

     Representation     3      1 modes -A_1  D_1  S_1  To be done
     Irreps are as follows:

                     mode #   3
                     (   0.00000  -0.00000   ) 
                     (   0.00000  -0.00000   ) 
                     (   0.00000  -0.00000   ) 
                     (   0.00000  -0.00000   ) 
                     (  -0.65080   0.00000   ) 
                     (   0.24956  -0.11909   ) 
                     (  -0.00000   0.00000   ) 
                     (  -0.65080   0.00000   ) 
                     (  -0.24956   0.11909   ) 

     Representation     4      1 modes -A_2  D_2  S_2  To be done
     Irreps are as follows:

                     mode #   4
                     (  -0.00000  -0.00000   ) 
                     (  -0.00000  -0.00000   ) 
                     (  -0.00000  -0.00000   ) 
                     (  -0.70711  -0.00000   ) 
                     (  -0.00000  -0.00000   ) 
                     (   0.00000   0.00000   ) 
                     (   0.70711   0.00000   ) 
                     (  -0.00000  -0.00000   ) 
                     (  -0.00000  -0.00000   ) 

     Representation     5      1 modes -B_1  D_3  S_3  To be done
     Irreps are as follows:

                     mode #   5
                     (  -1.00000  -0.00000   ) 
                     (  -0.00000  -0.00000   ) 
                     (  -0.00000  -0.00000   ) 
                     (  -0.00000  -0.00000   ) 
                     (  -0.00000  -0.00000   ) 
                     (  -0.00000  -0.00000   ) 
                     (  -0.00000  -0.00000   ) 
                     (  -0.00000  -0.00000   ) 
                     (  -0.00000  -0.00000   ) 

     Representation     6      1 modes -B_1  D_3  S_3  To be done
     Irreps are as follows:

                     mode #   6
                     (  -0.00000   0.00000   ) 
                     (  -0.00000   0.00000   ) 
                     (  -0.00000   0.00000   ) 
                     (  -0.70711  -0.00000   ) 
                     (  -0.00000  -0.00000   ) 
                     (  -0.00000  -0.00000   ) 
                     (  -0.70711  -0.00000   ) 
                     (  -0.00000   0.00000   ) 
                     (   0.00000   0.00000   ) 

     Representation     7      1 modes -B_2  D_4  S_4  To be done
     Irreps are as follows:

                     mode #   7
                     (  -0.00000  -0.00000   ) 
                     (  -0.00000  -0.00000   ) 
                     (  -0.00000  -0.00000   ) 
                     (  -0.00000  -0.00000   ) 
                     (  -0.09431  -0.00000   ) 
                     (  -0.13774  -0.68712   ) 
                     (   0.00000  -0.00000   ) 
                     (   0.09431  -0.00000   ) 
                     (  -0.13774  -0.68712   ) 

     Representation     8      1 modes -B_2  D_4  S_4  To be done
     Irreps are as follows:

                     mode #   8
                     (  -0.00000   0.00000   ) 
                     (  -0.00000   0.00000   ) 
                     (  -1.00000  -0.00000   ) 
                     (  -0.00000  -0.00000   ) 
                     (  -0.00000  -0.00000   ) 
                     (  -0.00000  -0.00000   ) 
                     (  -0.00000  -0.00000   ) 
                     (  -0.00000  -0.00000   ) 
                     (  -0.00000  -0.00000   ) 

     Representation     9      1 modes -B_2  D_4  S_4  To be done
     Irreps are as follows:

                     mode #   9
                     (  -0.00000  -0.00000   ) 
                     (  -0.00000  -0.00000   ) 
                     (  -0.00000  -0.00000   ) 
                     (  -0.00000  -0.00000   ) 
                     (  -0.70079  -0.00000   ) 
                     (   0.01854   0.09247   ) 
                     (   0.00000   0.00000   ) 
                     (   0.70079   0.00000   ) 
                     (   0.01854   0.09247   ) 



     Alpha used in Ewald sum =   2.3000
     PHONON       :  8m55.24s CPU     8m59.45s WALL



     Representation #  1 mode #   1

     Self-consistent Calculation

      iter #   1 total cpu time :   574.1 secs   av.it.:  13.8
      thresh= 1.000E-02 alpha_mix =  0.700 |ddv_scf|^2 =  2.089E-04

     End of self-consistent calculation

     Convergence has been achieved 


     Representation #  2 mode #   2

     Self-consistent Calculation

      iter #   1 total cpu time :   605.1 secs   av.it.:  10.8
      thresh= 1.000E-02 alpha_mix =  0.700 |ddv_scf|^2 =  9.782E-06

     End of self-consistent calculation

     Convergence has been achieved 


     Representation #  3 mode #   3

     Self-consistent Calculation

      iter #   1 total cpu time :   637.3 secs   av.it.:  11.5
      thresh= 1.000E-02 alpha_mix =  0.700 |ddv_scf|^2 =  5.297E-05

     End of self-consistent calculation

     Convergence has been achieved 


     Representation #  4 mode #   4

     Self-consistent Calculation

      iter #   1 total cpu time :   665.5 secs   av.it.:   9.5
      thresh= 1.000E-02 alpha_mix =  0.700 |ddv_scf|^2 =  1.580E-07

     End of self-consistent calculation

     Convergence has been achieved 


     Representation #  5 mode #   5

     Self-consistent Calculation

      iter #   1 total cpu time :   699.3 secs   av.it.:  12.3
      thresh= 1.000E-02 alpha_mix =  0.700 |ddv_scf|^2 =  1.730E-05

     End of self-consistent calculation

     Convergence has been achieved 


     Representation #  6 mode #   6

     Self-consistent Calculation

      iter #   1 total cpu time :   728.3 secs   av.it.:  10.0
      thresh= 1.000E-02 alpha_mix =  0.700 |ddv_scf|^2 =  2.118E-07

     End of self-consistent calculation

     Convergence has been achieved 


     Representation #  7 mode #   7

     Self-consistent Calculation

      iter #   1 total cpu time :   757.4 secs   av.it.:  10.2
      thresh= 1.000E-02 alpha_mix =  0.700 |ddv_scf|^2 =  5.692E-07

     End of self-consistent calculation

     Convergence has been achieved 


     Representation #  8 mode #   8

     Self-consistent Calculation

      iter #   1 total cpu time :   792.8 secs   av.it.:  12.8
      thresh= 1.000E-02 alpha_mix =  0.700 |ddv_scf|^2 =  2.198E-04

     End of self-consistent calculation

     Convergence has been achieved 


     Representation #  9 mode #   9

     Self-consistent Calculation

      iter #   1 total cpu time :   823.6 secs   av.it.:  10.7
      thresh= 1.000E-02 alpha_mix =  0.700 |ddv_scf|^2 =  5.260E-06

     End of self-consistent calculation

     Convergence has been achieved 

     Number of q in the star =    3
     List of q in the star:
          1   0.000000000   0.384900179   0.000000000
          2   0.333333333  -0.192450090   0.000000000
          3  -0.333333333  -0.192450090   0.000000000
     In addition there is the -q list: 
          1  -0.000000000  -0.384900179  -0.000000000
          2  -0.333333333   0.192450090  -0.000000000
          3   0.333333333   0.192450090  -0.000000000

     Diagonalizing the dynamical matrix

     q = (    0.000000000   0.384900179   0.000000000 ) 

 **************************************************************************
     freq (    1) =    -172.490153 [THz] =   -5753.652167 [cm-1]
     freq (    2) =    -119.286618 [THz] =   -3978.973294 [cm-1]
     freq (    3) =     -87.526281 [THz] =   -2919.562467 [cm-1]
     freq (    4) =     -79.733138 [THz] =   -2659.611215 [cm-1]
     freq (    5) =     -51.892071 [THz] =   -1730.933169 [cm-1]
     freq (    6) =     -47.232849 [THz] =   -1575.518257 [cm-1]
     freq (    7) =     -36.211485 [THz] =   -1207.885112 [cm-1]
     freq (    8) =     -33.197832 [THz] =   -1107.360496 [cm-1]
     freq (    9) =     -31.666413 [THz] =   -1056.277850 [cm-1]
 **************************************************************************

     Mode symmetry, C_2v (mm2)  point group:

     freq (  1 -  1) =      -5753.7  [cm-1]   --> A_1  D_1  S_1      
     freq (  2 -  2) =      -3979.0  [cm-1]   --> B_2  D_4  S_4      
     freq (  3 -  3) =      -2919.6  [cm-1]   --> B_1  D_3  S_3      
     freq (  4 -  4) =      -2659.6  [cm-1]   --> A_1  D_1  S_1      
     freq (  5 -  5) =      -1730.9  [cm-1]   --> B_2  D_4  S_4      
     freq (  6 -  6) =      -1575.5  [cm-1]   --> A_1  D_1  S_1      
     freq (  7 -  7) =      -1207.9  [cm-1]   --> B_2  D_4  S_4      
     freq (  8 -  8) =      -1107.4  [cm-1]   --> A_2  D_2  S_2      
     freq (  9 -  9) =      -1056.3  [cm-1]   --> B_1  D_3  S_3      
     electron-phonon interaction (to be used in YAMBO)  ...


     Calculation of q =    0.3333333   0.5773503   0.0000000

     G-vector sticks info
     --------------------
     sticks:   dense  smooth     PW     G-vecs:    dense   smooth      PW
     Sum         583     583    199                56613    56613   11709



     bravais-lattice index     =            4
     lattice parameter (alat)  =       5.8772  a.u.
     unit-cell volume          =     897.4163 (a.u.)^3
     number of atoms/cell      =            3
     number of atomic types    =            2
     number of electrons       =        26.00
     number of Kohn-Sham states=           32
     kinetic-energy cutoff     =      60.0000  Ry
     charge density cutoff     =     240.0000  Ry
     Exchange-correlation      = SLA-PZ-NOGX-NOGC ( 1  1  0  0 0)
     Non magnetic calculation with spin-orbit


     celldm(1)=   5.877208  celldm(2)=   0.000000  celldm(3)=   5.104465
     celldm(4)=   0.000000  celldm(5)=   0.000000  celldm(6)=   0.000000

     crystal axes: (cart. coord. in units of alat)
               a(1) = (   1.000000   0.000000   0.000000 )  
               a(2) = (  -0.500000   0.866025   0.000000 )  
               a(3) = (   0.000000   0.000000   5.104465 )  

     reciprocal axes: (cart. coord. in units 2 pi/alat)
               b(1) = (  1.000000  0.577350 -0.000000 )  
               b(2) = (  0.000000  1.154701  0.000000 )  
               b(3) = (  0.000000 -0.000000  0.195907 )  


     PseudoPot. # 1 for Mo read from file:
     ./Mo_RL_withPS_PZ.UPF
     MD5 check sum: 75fa0bd84f1d166fc7323d3ac6c2f396
     Pseudo is Norm-conserving + core correction, Zval = 14.0
     Generated using "atomic" code by A. Dal Corso  (Quantum ESPRESSO distribution)
     Using radial grid of 1229 points,  8 beta functions with: 
                l(1) =   0
                l(2) =   0
                l(3) =   1
                l(4) =   1
                l(5) =   2
                l(6) =   2
                l(7) =   2
                l(8) =   2

     PseudoPot. # 2 for  S read from file:
     ./S.pz-hgh.UPF
     MD5 check sum: fb24c143a2a3ea3aba309d3cb9e9e6ec
     Pseudo is Norm-conserving, Zval =  6.0
     Generated in analytical, separable form
     Using radial grid of 1151 points,  3 beta functions with: 
                l(1) =   0
                l(2) =   0
                l(3) =   1

     atomic species   valence    mass     pseudopotential
        Mo            14.00    95.94000     Mo( 1.00)
        S              6.00    32.06500      S( 1.00)

     12 Sym. Ops. (no inversion) found


                                    s                        frac. trans.

      isym =  1     identity                                     

 cryst.   s( 1) = (     1          0          0      )
                  (     0          1          0      )
                  (     0          0          1      )

 cart.    s( 1) = (  1.0000000  0.0000000  0.0000000 )
                  (  0.0000000  1.0000000  0.0000000 )
                  (  0.0000000  0.0000000  1.0000000 )


      isym =  2     inv. 180 deg rotation - cart. axis [0,0,1]   

 cryst.   s( 2) = (     1          0          0      )
                  (     0          1          0      )
                  (     0          0         -1      )

 cart.    s( 2) = (  1.0000000  0.0000000  0.0000000 )
                  (  0.0000000  1.0000000  0.0000000 )
                  (  0.0000000  0.0000000 -1.0000000 )


      isym =  3     inv.  60 deg rotation - cryst. axis [0,0,1]  

 cryst.   s( 3) = (    -1         -1          0      )
                  (     1          0          0      )
                  (     0          0         -1      )

 cart.    s( 3) = ( -0.5000000  0.8660254  0.0000000 )
                  ( -0.8660254 -0.5000000  0.0000000 )
                  (  0.0000000  0.0000000 -1.0000000 )


      isym =  4     inv.  60 deg rotation - cryst. axis [0,0,-1] 

 cryst.   s( 4) = (     0          1          0      )
                  (    -1         -1          0      )
                  (     0          0         -1      )

 cart.    s( 4) = ( -0.5000000 -0.8660254  0.0000000 )
                  (  0.8660254 -0.5000000  0.0000000 )
                  (  0.0000000  0.0000000 -1.0000000 )


      isym =  5     120 deg rotation - cryst. axis [0,0,1]       

 cryst.   s( 5) = (     0          1          0      )
                  (    -1         -1          0      )
                  (     0          0          1      )

 cart.    s( 5) = ( -0.5000000 -0.8660254  0.0000000 )
                  (  0.8660254 -0.5000000  0.0000000 )
                  (  0.0000000  0.0000000  1.0000000 )


      isym =  6     120 deg rotation - cryst. axis [0,0,-1]      

 cryst.   s( 6) = (    -1         -1          0      )
                  (     1          0          0      )
                  (     0          0          1      )

 cart.    s( 6) = ( -0.5000000  0.8660254  0.0000000 )
                  ( -0.8660254 -0.5000000  0.0000000 )
                  (  0.0000000  0.0000000  1.0000000 )


      isym =  7     180 deg rotation - cart. axis [0,1,0]        

 cryst.   s( 7) = (    -1          0          0      )
                  (     1          1          0      )
                  (     0          0         -1      )

 cart.    s( 7) = ( -1.0000000  0.0000000  0.0000000 )
                  (  0.0000000  1.0000000  0.0000000 )
                  (  0.0000000  0.0000000 -1.0000000 )


      isym =  8     inv. 180 deg rotation - cart. axis [1,0,0]   

 cryst.   s( 8) = (    -1          0          0      )
                  (     1          1          0      )
                  (     0          0          1      )

 cart.    s( 8) = ( -1.0000000  0.0000000  0.0000000 )
                  (  0.0000000  1.0000000  0.0000000 )
                  (  0.0000000  0.0000000  1.0000000 )


      isym =  9     180 deg rotation - cryst. axis [1,-1,0]      

 cryst.   s( 9) = (     0         -1          0      )
                  (    -1          0          0      )
                  (     0          0         -1      )

 cart.    s( 9) = (  0.5000000 -0.8660254  0.0000000 )
                  ( -0.8660254 -0.5000000  0.0000000 )
                  (  0.0000000  0.0000000 -1.0000000 )


      isym = 10     180 deg rotation - cryst. axis [2,1,0]       

 cryst.   s(10) = (     1          1          0      )
                  (     0         -1          0      )
                  (     0          0         -1      )

 cart.    s(10) = (  0.5000000  0.8660254  0.0000000 )
                  (  0.8660254 -0.5000000  0.0000000 )
                  (  0.0000000  0.0000000 -1.0000000 )


      isym = 11     inv. 180 deg rotation - cryst. axis [0,1,0]  

 cryst.   s(11) = (     1          1          0      )
                  (     0         -1          0      )
                  (     0          0          1      )

 cart.    s(11) = (  0.5000000  0.8660254  0.0000000 )
                  (  0.8660254 -0.5000000  0.0000000 )
[...]
     Non magnetic calculation with spin-orbit

     celldm(1)=    5.87721  celldm(2)=    0.00000  celldm(3)=    5.10446
     celldm(4)=    0.00000  celldm(5)=    0.00000  celldm(6)=    0.00000

     crystal axes: (cart. coord. in units of alat)
               a(1) = (  1.0000  0.0000  0.0000 )  
               a(2) = ( -0.5000  0.8660  0.0000 )  
               a(3) = (  0.0000  0.0000  5.1045 )  

     reciprocal axes: (cart. coord. in units 2 pi/alat)
               b(1) = (  1.0000  0.5774 -0.0000 )  
               b(2) = (  0.0000  1.1547  0.0000 )  
               b(3) = (  0.0000 -0.0000  0.1959 )  


     Atoms inside the unit cell: 

     Cartesian axes

     site n.  atom      mass           positions (alat units)
        1     Mo  95.9400   tau(    1) = (   -0.00000    0.57735    0.00000  )
        2     S   32.0650   tau(    2) = (    0.50000    0.28868    0.49913  )
        3     S   32.0650   tau(    3) = (    0.50000    0.28868   -0.49913  )

     Computing dynamical matrix for 
                    q = (   0.3333333   0.5773503   0.0000000 )

      6 Sym.Ops. (no q -> -q+G )

                                    s                        frac. trans.

      isym =  1     identity                                     

 cryst.   s( 1) = (     1          0          0      )
                  (     0          1          0      )
                  (     0          0          1      )

 cart.    s( 1) = (  1.0000000  0.0000000  0.0000000 )
                  (  0.0000000  1.0000000  0.0000000 )
                  (  0.0000000  0.0000000  1.0000000 )


      isym =  2     inv. 180 deg rotation - cart. axis [0,0,1]   

 cryst.   s( 2) = (     1          0          0      )
                  (     0          1          0      )
                  (     0          0         -1      )

 cart.    s( 2) = (  1.0000000  0.0000000  0.0000000 )
                  (  0.0000000  1.0000000  0.0000000 )
                  (  0.0000000  0.0000000 -1.0000000 )


      isym =  3     inv.  60 deg rotation - cryst. axis [0,0,1]  

 cryst.   s( 3) = (    -1         -1          0      )
                  (     1          0          0      )
                  (     0          0         -1      )

 cart.    s( 3) = ( -0.5000000  0.8660254  0.0000000 )
                  ( -0.8660254 -0.5000000  0.0000000 )
                  (  0.0000000  0.0000000 -1.0000000 )


      isym =  4     inv.  60 deg rotation - cryst. axis [0,0,-1] 

 cryst.   s( 4) = (     0          1          0      )
                  (    -1         -1          0      )
                  (     0          0         -1      )

 cart.    s( 4) = ( -0.5000000 -0.8660254  0.0000000 )
                  (  0.8660254 -0.5000000  0.0000000 )
                  (  0.0000000  0.0000000 -1.0000000 )


      isym =  5     120 deg rotation - cryst. axis [0,0,1]       

 cryst.   s( 5) = (     0          1          0      )
                  (    -1         -1          0      )
                  (     0          0          1      )

 cart.    s( 5) = ( -0.5000000 -0.8660254  0.0000000 )
                  (  0.8660254 -0.5000000  0.0000000 )
                  (  0.0000000  0.0000000  1.0000000 )


      isym =  6     120 deg rotation - cryst. axis [0,0,-1]      

 cryst.   s( 6) = (    -1         -1          0      )
                  (     1          0          0      )
                  (     0          0          1      )

 cart.    s( 6) = ( -0.5000000  0.8660254  0.0000000 )
                  ( -0.8660254 -0.5000000  0.0000000 )
                  (  0.0000000  0.0000000  1.0000000 )


     G cutoff =  209.9876  (  56613 G-vectors)     FFT grid: ( 30, 30,150)
     number of k points=    10
                       cart. coord. in units 2pi/alat
        k(    1) = (   0.0000000   0.0000000   0.0000000), wk =   0.1111111
        k(    2) = (   0.3333333   0.5773503   0.0000000), wk =   0.0000000
        k(    3) = (   0.0000000   0.3849002   0.0000000), wk =   0.3333333
        k(    4) = (   0.3333333   0.9622504   0.0000000), wk =   0.0000000
        k(    5) = (   0.3333333   0.5773503   0.0000000), wk =   0.1111111
        k(    6) = (   0.6666667   1.1547005   0.0000000), wk =   0.0000000
        k(    7) = (   0.0000000  -0.3849002   0.0000000), wk =   0.3333333
        k(    8) = (   0.3333333   0.1924501   0.0000000), wk =   0.0000000
        k(    9) = (  -0.3333333   0.5773503   0.0000000), wk =   0.1111111
        k(   10) = (   0.0000000   1.1547005   0.0000000), wk =   0.0000000

                       cryst. coord.
        k(    1) = (   0.0000000   0.0000000   0.0000000), wk =   0.1111111
        k(    2) = (   0.3333333   0.3333333   0.0000000), wk =   0.0000000
        k(    3) = (   0.0000000   0.3333333   0.0000000), wk =   0.3333333
        k(    4) = (   0.3333333   0.6666667   0.0000000), wk =   0.0000000
        k(    5) = (   0.3333333   0.3333333   0.0000000), wk =   0.1111111
        k(    6) = (   0.6666667   0.6666667   0.0000000), wk =   0.0000000
        k(    7) = (   0.0000000  -0.3333333   0.0000000), wk =   0.3333333
        k(    8) = (   0.3333333   0.0000000   0.0000000), wk =   0.0000000
        k(    9) = (  -0.3333333   0.6666667   0.0000000), wk =   0.1111111
        k(   10) = (   0.0000000   1.0000000   0.0000000), wk =   0.0000000

     PseudoPot. # 1 for Mo read from file:
     ./Mo_RL_withPS_PZ.UPF
     MD5 check sum: 75fa0bd84f1d166fc7323d3ac6c2f396
     Pseudo is Norm-conserving + core correction, Zval = 14.0
     Generated using "atomic" code by A. Dal Corso  (Quantum ESPRESSO distribution)
     Using radial grid of 1229 points,  8 beta functions with: 
                l(1) =   0
                l(2) =   0
                l(3) =   1
                l(4) =   1
                l(5) =   2
                l(6) =   2
                l(7) =   2
                l(8) =   2

     PseudoPot. # 2 for  S read from file:
     ./S.pz-hgh.UPF
     MD5 check sum: fb24c143a2a3ea3aba309d3cb9e9e6ec
     Pseudo is Norm-conserving, Zval =  6.0
     Generated in analytical, separable form
     Using radial grid of 1151 points,  3 beta functions with: 
                l(1) =   0
                l(2) =   0
                l(3) =   1

     double point group C_3h (-6)  
     there are  6 classes and  3 irreducible representations
     the character table:

       E     -E    2C3   -2C3   3C2'  s_h 
                               -3C2' -s_h'
G_7    2.00 -2.00  1.00 -1.00  0.00  0.00
G_8    2.00 -2.00  1.00 -1.00  0.00  0.00
G_9    2.00 -2.00 -2.00  2.00  0.00  0.00

     imaginary part

       E     -E    2C3   -2C3   3C2'  s_h 
                               -3C2' -s_h'
G_7    0.00  0.00  0.00  0.00  0.00  0.00
G_8    0.00  0.00  0.00  0.00  0.00  0.00
G_9    0.00  0.00  0.00  0.00  0.00  0.00

     the symmetry operations in each class:
     E             1
      3s_v-3s_v    2   -2
     2S3           3    4
     2C3           5    6
      3C2'-3C2'    7   -7    9   10  -10   -9
      3s_v-3s_v    8   -8   12  -11   11  -12


     Atomic displacements:
     There are   9 irreducible representations

     Representation     1      1 modes -A'  To be done
     Irreps are as follows:

                     mode #   1
                     (  -0.70711   0.00000   ) 
                     (  -0.00000   0.70711   ) 
                     (  -0.00000  -0.00000   ) 
                     (  -0.00000  -0.00000   ) 
                     (  -0.00000  -0.00000   ) 
                     (  -0.00000  -0.00000   ) 
                     (  -0.00000  -0.00000   ) 
                     (  -0.00000  -0.00000   ) 
                     (  -0.00000  -0.00000   ) 

     Representation     2      1 modes -A'  To be done
     Irreps are as follows:

                     mode #   2
                     (  -0.00000  -0.00000   ) 
                     (  -0.00000  -0.00000   ) 
                     (  -0.00000  -0.00000   ) 
                     (  -0.50000  -0.00000   ) 
                     (  -0.00000  -0.50000   ) 
                     (  -0.00000  -0.00000   ) 
                     (  -0.50000   0.00000   ) 
                     (  -0.00000  -0.50000   ) 
                     (  -0.00000  -0.00000   ) 

     Representation     3      1 modes -E'  To be done
     Irreps are as follows:

                     mode #   3
                     (  -0.00000   0.00000   ) 
                     (  -0.00000   0.00000   ) 
                     (  -0.00000   0.00000   ) 
                     (  -0.50000  -0.00000   ) 
                     (  -0.00000   0.50000   ) 
                     (  -0.00000   0.00000   ) 
                     (  -0.50000  -0.00000   ) 
                     (  -0.00000   0.50000   ) 
                     (  -0.00000   0.00000   ) 

     Representation     4      1 modes -E'*  To be done
     Irreps are as follows:

                     mode #   4
                     (  -0.70711  -0.00000   ) 
                     (   0.00000  -0.70711   ) 
                     (  -0.00000  -0.00000   ) 
                     (  -0.00000  -0.00000   ) 
                     (  -0.00000  -0.00000   ) 
                     (  -0.00000  -0.00000   ) 
                     (  -0.00000  -0.00000   ) 
                     (  -0.00000  -0.00000   ) 
                     (  -0.00000  -0.00000   ) 

     Representation     5      1 modes -E'*  To be done
     Irreps are as follows:

                     mode #   5
                     (  -0.00000   0.00000   ) 
                     (  -0.00000   0.00000   ) 
                     (  -0.00000   0.00000   ) 
                     (  -0.00000   0.00000   ) 
                     (  -0.00000   0.00000   ) 
                     (  -0.70711  -0.00000   ) 
                     (  -0.00000   0.00000   ) 
                     (  -0.00000   0.00000   ) 
                     (   0.70711   0.00000   ) 

     Representation     6      1 modes -A''  To be done
     Irreps are as follows:

                     mode #   6
                     (  -0.00000  -0.00000   ) 
                     (  -0.00000  -0.00000   ) 
                     (  -0.00000  -0.00000   ) 
                     (  -0.50000  -0.00000   ) 
                     (   0.00000  -0.50000   ) 
                     (  -0.00000  -0.00000   ) 
                     (   0.50000   0.00000   ) 
                     (  -0.00000   0.50000   ) 
                     (  -0.00000  -0.00000   ) 

     Representation     7      1 modes -E''  To be done
     Irreps are as follows:

                     mode #   7
                     (  -0.00000   0.00000   ) 
                     (  -0.00000   0.00000   ) 
                     (  -1.00000  -0.00000   ) 
                     (  -0.00000  -0.00000   ) 
                     (  -0.00000  -0.00000   ) 
                     (  -0.00000  -0.00000   ) 
                     (  -0.00000  -0.00000   ) 
                     (  -0.00000  -0.00000   ) 
                     (  -0.00000  -0.00000   ) 

     Representation     8      1 modes -E''  To be done
     Irreps are as follows:

                     mode #   8
                     (  -0.00000   0.00000   ) 
                     (  -0.00000   0.00000   ) 
                     (  -0.00000   0.00000   ) 
                     (  -0.50000  -0.00000   ) 
                     (  -0.00000   0.50000   ) 
                     (  -0.00000   0.00000   ) 
                     (   0.50000   0.00000   ) 
                     (   0.00000  -0.50000   ) 
                     (  -0.00000   0.00000   ) 

     Representation     9      1 modes -E''*  To be done
     Irreps are as follows:

                     mode #   9
                     (  -0.00000  -0.00000   ) 
                     (  -0.00000  -0.00000   ) 
                     (  -0.00000  -0.00000   ) 
                     (  -0.00000  -0.00000   ) 
                     (  -0.00000  -0.00000   ) 
                     (  -0.70711  -0.00000   ) 
                     (  -0.00000  -0.00000   ) 
                     (  -0.00000  -0.00000   ) 
                     (  -0.70711  -0.00000   ) 



     Alpha used in Ewald sum =   2.3000
     PHONON       : 15m 4.69s CPU    15m12.38s WALL



     Representation #  1 mode #   1

     Self-consistent Calculation

      iter #   1 total cpu time :   937.7 secs   av.it.:  11.6
      thresh= 1.000E-02 alpha_mix =  0.700 |ddv_scf|^2 =  3.852E-05

     End of self-consistent calculation

     Convergence has been achieved 


     Representation #  2 mode #   2

     Self-consistent Calculation

      iter #   1 total cpu time :   961.3 secs   av.it.:   9.4
      thresh= 1.000E-02 alpha_mix =  0.700 |ddv_scf|^2 =  2.115E-06

     End of self-consistent calculation

     Convergence has been achieved 


     Representation #  3 mode #   3

     Self-consistent Calculation

      iter #   1 total cpu time :   985.0 secs   av.it.:   9.6
      thresh= 1.000E-02 alpha_mix =  0.700 |ddv_scf|^2 =  7.414E-06

     End of self-consistent calculation

     Convergence has been achieved 


     Representation #  4 mode #   4

     Self-consistent Calculation

      iter #   1 total cpu time :  1012.9 secs   av.it.:  12.0
      thresh= 1.000E-02 alpha_mix =  0.700 |ddv_scf|^2 =  4.177E-05

     End of self-consistent calculation

     Convergence has been achieved 


     Representation #  5 mode #   5

     Self-consistent Calculation

      iter #   1 total cpu time :  1036.0 secs   av.it.:   9.4
      thresh= 1.000E-02 alpha_mix =  0.700 |ddv_scf|^2 =  9.255E-07

     End of self-consistent calculation

     Convergence has been achieved 


     Representation #  6 mode #   6

     Self-consistent Calculation

      iter #   1 total cpu time :  1058.6 secs   av.it.:   9.4
      thresh= 1.000E-02 alpha_mix =  0.700 |ddv_scf|^2 =  9.916E-07

     End of self-consistent calculation

     Convergence has been achieved 


     Representation #  7 mode #   7

     Self-consistent Calculation

      iter #   1 total cpu time :  1085.3 secs   av.it.:  11.4
      thresh= 1.000E-02 alpha_mix =  0.700 |ddv_scf|^2 =  2.094E-04

     End of self-consistent calculation

     Convergence has been achieved 


     Representation #  8 mode #   8

     Self-consistent Calculation

      iter #   1 total cpu time :  1108.2 secs   av.it.:   9.4
      thresh= 1.000E-02 alpha_mix =  0.700 |ddv_scf|^2 =  1.161E-06

     End of self-consistent calculation

     Convergence has been achieved 


     Representation #  9 mode #   9

     Self-consistent Calculation

      iter #   1 total cpu time :  1130.4 secs   av.it.:   8.8
      thresh= 1.000E-02 alpha_mix =  0.700 |ddv_scf|^2 =  2.384E-07

     End of self-consistent calculation

     Convergence has been achieved 

     Number of q in the star =    2
     List of q in the star:
          1   0.333333333   0.577350269   0.000000000
          2  -0.333333333   0.577350269   0.000000000

     Diagonalizing the dynamical matrix

     q = (    0.333333333   0.577350269   0.000000000 ) 

 **************************************************************************
     freq (    1) =    -120.305701 [THz] =   -4012.966221 [cm-1]
     freq (    2) =    -118.400781 [THz] =   -3949.424940 [cm-1]
     freq (    3) =    -103.882082 [THz] =   -3465.133264 [cm-1]
     freq (    4) =     -74.438501 [THz] =   -2483.001107 [cm-1]
     freq (    5) =     -52.349966 [THz] =   -1746.206900 [cm-1]
     freq (    6) =     -44.342859 [THz] =   -1479.118556 [cm-1]
     freq (    7) =     -39.554776 [THz] =   -1319.405291 [cm-1]
     freq (    8) =     -35.861841 [THz] =   -1196.222258 [cm-1]
     freq (    9) =     -35.499637 [THz] =   -1184.140416 [cm-1]
 **************************************************************************

     Mode symmetry, C_3h (-6)   point group:

     freq (  1 -  1) =      -4013.0  [cm-1]   --> A'                 
     freq (  2 -  2) =      -3949.4  [cm-1]   --> E'*                
     freq (  3 -  3) =      -3465.1  [cm-1]   --> E''                
     freq (  4 -  4) =      -2483.0  [cm-1]   --> E'                 
     freq (  5 -  5) =      -1746.2  [cm-1]   --> A''                
     freq (  6 -  6) =      -1479.1  [cm-1]   --> A'                 
     freq (  7 -  7) =      -1319.4  [cm-1]   --> E''                
     freq (  8 -  8) =      -1196.2  [cm-1]   --> E'*                
     freq (  9 -  9) =      -1184.1  [cm-1]   --> E''*               
     electron-phonon interaction (to be used in YAMBO)  ...


     PHONON       : 18m43.54s CPU    18m52.85s WALL

     INITIALIZATION: 
     phq_setup    :      0.10s CPU      0.10s WALL (       3 calls)
     phq_init     :     27.02s CPU     27.17s WALL (       3 calls)

     phq_init     :     27.02s CPU     27.17s WALL (       3 calls)
     set_drhoc    :     14.55s CPU     14.57s WALL (       9 calls)
     init_vloc    :      0.46s CPU      0.46s WALL (       3 calls)
     init_us_1    :      0.77s CPU      0.78s WALL (       3 calls)

     DYNAMICAL MATRIX:
     dynmat0      :     12.12s CPU     12.18s WALL (       3 calls)
     phqscf       :    672.07s CPU    677.96s WALL (       3 calls)
     dynmatrix    :      0.04s CPU      0.04s WALL (       3 calls)

     phqscf       :    672.07s CPU    677.96s WALL (       3 calls)
     solve_linter :    662.50s CPU    667.57s WALL (      24 calls)
     drhodv       :      9.14s CPU      9.53s WALL (      24 calls)

     dynmat0      :     12.12s CPU     12.18s WALL (       3 calls)
     dynmat_us    :      2.06s CPU      2.11s WALL (       3 calls)
     d2ionq       :      0.22s CPU      0.22s WALL (       3 calls)
     dynmatcc     :      9.83s CPU      9.84s WALL (       3 calls)

     dynmat_us    :      2.06s CPU      2.11s WALL (       3 calls)

     phqscf       :    672.07s CPU    677.96s WALL (       3 calls)
     solve_linter :    662.50s CPU    667.57s WALL (      24 calls)

     solve_linter :    662.50s CPU    667.57s WALL (      24 calls)
     dvqpsi_us    :     57.14s CPU     57.36s WALL (     153 calls)
     ortho        :      2.98s CPU      3.05s WALL (     168 calls)
     cgsolve      :    745.78s CPU    748.48s WALL (     168 calls)
     incdrhoscf   :     47.31s CPU     47.63s WALL (     159 calls)
     vpsifft      :      1.73s CPU      1.75s WALL (       6 calls)
     dv_of_drho   :      0.58s CPU      0.60s WALL (      38 calls)
     mix_pot      :      0.07s CPU      0.12s WALL (      29 calls)
     symdvscf     :      1.54s CPU      1.56s WALL (      26 calls)

     dvqpsi_us    :     57.14s CPU     57.36s WALL (     153 calls)
     dvqpsi_us_on :      5.47s CPU      5.51s WALL (     153 calls)

     cgsolve      :    745.78s CPU    748.48s WALL (     168 calls)
     ch_psi       :    721.94s CPU    724.04s WALL (    3219 calls)

     ch_psi       :    721.94s CPU    724.04s WALL (    3219 calls)
     h_psiq       :    639.42s CPU    641.24s WALL (    3219 calls)
     last         :     78.02s CPU     78.23s WALL (    3219 calls)

     h_psiq       :    639.42s CPU    641.24s WALL (    3219 calls)
     firstfft     :    284.04s CPU    284.82s WALL (   56614 calls)
     secondfft    :    275.70s CPU    276.49s WALL (   56614 calls)
     add_vuspsi   :     26.15s CPU     26.34s WALL (    3685 calls)

     incdrhoscf   :     47.31s CPU     47.63s WALL (     159 calls)


      General routines
     calbec       :     57.22s CPU     57.37s WALL (    7557 calls)
     fft          :      1.48s CPU      1.59s WALL (     494 calls)
     ffts         :      1.16s CPU      1.16s WALL (     369 calls)
     fftw         :    756.45s CPU    758.43s WALL (  323352 calls)
     davcio       :      0.83s CPU      3.85s WALL (    1421 calls)
     write_rec    :      0.09s CPU      0.33s WALL (      53 calls)


     PHONON       : 18m43.54s CPU    18m52.85s WALL


   This run was terminated on:  15:21:37  20Jul2015            

=------------------------------------------------------------------------------=
   JOB DONE.
=------------------------------------------------------------------------------=
