
     Program PWSCF v.5.1 starts on 16Nov2017 at 23:22:57 

     This program is part of the open-source Quantum ESPRESSO suite
     for quantum simulation of materials; please cite
         "P. Giannozzi et al., J. Phys.:Condens. Matter 21 395502 (2009);
          URL http://www.quantum-espresso.org", 
     in publications or presentations arising from this work. More details at
     http://www.quantum-espresso.org/quote

     Parallel version (MPI), running on     1 processors
     Waiting for input...
     Reading input from standard input

     Current dimensions of program PWSCF are:
     Max number of different atomic species (ntypx) = 10
     Max number of k-points (npk) =  40000
     Max angular momentum in pseudopotentials (lmaxx) =  3

     Subspace diagonalization in iterative solution of the eigenvalue problem:
     a serial algorithm will be used


     G-vector sticks info
     --------------------
     sticks:   dense  smooth     PW     G-vecs:    dense   smooth      PW
     Sum         313     313     91                18475    18475    3213



     bravais-lattice index     =            4
     lattice parameter (alat)  =       4.7177  a.u.
     unit-cell volume          =     385.5033 (a.u.)^3
     number of atoms/cell      =            2
     number of atomic types    =            2
     number of electrons       =         8.00
     number of Kohn-Sham states=            4
     kinetic-energy cutoff     =      50.0000  Ry
     charge density cutoff     =     200.0000  Ry
     convergence threshold     =      1.0E-07
     mixing beta               =       0.7000
     number of iterations used =            8  plain     mixing
     Exchange-correlation      =  SLA  PZ   NOGX NOGC ( 1  1  0  0 0)

     celldm(1)=   4.717737  celldm(2)=   0.000000  celldm(3)=   4.239320
     celldm(4)=   0.000000  celldm(5)=   0.000000  celldm(6)=   0.000000

     crystal axes: (cart. coord. in units of alat)
               a(1) = (   1.000000   0.000000   0.000000 )  
               a(2) = (  -0.500000   0.866025   0.000000 )  
               a(3) = (   0.000000   0.000000   4.239320 )  

     reciprocal axes: (cart. coord. in units 2 pi/alat)
               b(1) = (  1.000000  0.577350 -0.000000 )  
               b(2) = (  0.000000  1.154701  0.000000 )  
               b(3) = (  0.000000 -0.000000  0.235887 )  


     PseudoPot. # 1 for B  read from file:
     ./B.pz-vbc.UPF
     MD5 check sum: b59596b5d63edeea6a2b3a0beace49c5
     Pseudo is Norm-conserving, Zval =  3.0
     Generated by new atomic code, or converted to UPF format
     Using radial grid of  157 points,  1 beta functions with: 
                l(1) =   0

     PseudoPot. # 2 for N  read from file:
     ./N.pz-vbc.UPF
     MD5 check sum: f7a51f6f78412844d17f6e69b370b417
     Pseudo is Norm-conserving, Zval =  5.0
     Generated by new atomic code, or converted to UPF format
     Using radial grid of  161 points,  1 beta functions with: 
                l(1) =   0

     atomic species   valence    mass     pseudopotential
        B              3.00     1.00000     B ( 1.00)
        N              5.00     1.00000     N ( 1.00)

     12 Sym. Ops. (no inversion) found



   Cartesian axes

     site n.     atom                  positions (alat units)
         1           B   tau(   1) = (   0.5000000   0.2886751   0.0000000  )
         2           N   tau(   2) = (  -0.5000000  -0.2886751   0.0000000  )

     number of k points=    19
                       cart. coord. in units 2pi/alat
        k(    1) = (   0.0000000   0.0000000   0.0000000), wk =   0.0138889
        k(    2) = (   0.0000000   0.0962250   0.0000000), wk =   0.0833333
        k(    3) = (   0.0000000   0.1924501   0.0000000), wk =   0.0833333
        k(    4) = (   0.0000000   0.2886751   0.0000000), wk =   0.0833333
        k(    5) = (   0.0000000   0.3849002   0.0000000), wk =   0.0833333
        k(    6) = (   0.0000000   0.4811252   0.0000000), wk =   0.0833333
        k(    7) = (   0.0000000  -0.5773503   0.0000000), wk =   0.0416667
        k(    8) = (   0.0833333   0.1443376   0.0000000), wk =   0.0833333
        k(    9) = (   0.0833333   0.2405626   0.0000000), wk =   0.1666667
        k(   10) = (   0.0833333   0.3367877   0.0000000), wk =   0.1666667
        k(   11) = (   0.0833333   0.4330127   0.0000000), wk =   0.1666667
        k(   12) = (   0.0833333   0.5292377   0.0000000), wk =   0.1666667
        k(   13) = (   0.1666667   0.2886751   0.0000000), wk =   0.0833333
        k(   14) = (   0.1666667   0.3849002   0.0000000), wk =   0.1666667
        k(   15) = (   0.1666667   0.4811252   0.0000000), wk =   0.1666667
        k(   16) = (   0.1666667   0.5773503   0.0000000), wk =   0.0833333
        k(   17) = (   0.2500000   0.4330127   0.0000000), wk =   0.0833333
        k(   18) = (   0.2500000   0.5292377   0.0000000), wk =   0.1666667
        k(   19) = (   0.3333333   0.5773503   0.0000000), wk =   0.0277778

     Dense  grid:    18475 G-vectors     FFT dimensions: (  24,  24,  96)

     Largest allocated arrays     est. size (Mb)     dimensions
        Kohn-Sham Wavefunctions         0.14 Mb     (    2317,    4)
        NL pseudopotentials             0.07 Mb     (    2317,    2)
        Each V/rho on FFT grid          0.84 Mb     (   55296)
        Each G-vector array             0.14 Mb     (   18475)
        G-vector shells                 0.01 Mb     (    1035)
     Largest temporary arrays     est. size (Mb)     dimensions
        Auxiliary wavefunctions         0.57 Mb     (    2317,   16)
        Each subspace H/S matrix        0.00 Mb     (      16,   16)
        Each <psi_i|beta_j> matrix      0.00 Mb     (       2,    4)
        Arrays for rho mixing           6.75 Mb     (   55296,    8)

     Initial potential from superposition of free atoms
     Check: negative starting charge=   -0.003999

     starting charge    7.99969, renormalised to    8.00000

     negative rho (up, down):  4.000E-03 0.000E+00
     Starting wfc are    8 randomized atomic wfcs

     total cpu time spent up to now is        0.6 secs

     per-process dynamical memory:    15.1 Mb

     Self-consistent Calculation

     iteration #  1     ecut=    50.00 Ry     beta=0.70
     Davidson diagonalization with overlap
     ethr =  1.00E-02,  avg # of iterations =  2.0

     negative rho (up, down):  1.141E-03 0.000E+00

     total cpu time spent up to now is        1.4 secs

     total energy              =     -25.56375518 Ry
     Harris-Foulkes estimate   =     -25.83018532 Ry
     estimated scf accuracy    <       0.38793497 Ry

     iteration #  2     ecut=    50.00 Ry     beta=0.70
     Davidson diagonalization with overlap
     ethr =  4.85E-03,  avg # of iterations =  3.2

     negative rho (up, down):  5.634E-04 0.000E+00

     total cpu time spent up to now is        2.2 secs

     total energy              =     -25.66262083 Ry
     Harris-Foulkes estimate   =     -25.77634766 Ry
     estimated scf accuracy    <       0.22387946 Ry

     iteration #  3     ecut=    50.00 Ry     beta=0.70
     Davidson diagonalization with overlap
     ethr =  2.80E-03,  avg # of iterations =  2.3

     negative rho (up, down):  3.772E-05 0.000E+00

     total cpu time spent up to now is        3.0 secs

     total energy              =     -25.70640139 Ry
     Harris-Foulkes estimate   =     -25.70690386 Ry
     estimated scf accuracy    <       0.00153151 Ry

     iteration #  4     ecut=    50.00 Ry     beta=0.70
     Davidson diagonalization with overlap
     ethr =  1.91E-05,  avg # of iterations =  2.9

     negative rho (up, down):  3.192E-05 0.000E+00

     total cpu time spent up to now is        3.9 secs

     total energy              =     -25.70750478 Ry
     Harris-Foulkes estimate   =     -25.70775552 Ry
     estimated scf accuracy    <       0.00048955 Ry

     iteration #  5     ecut=    50.00 Ry     beta=0.70
     Davidson diagonalization with overlap
     ethr =  6.12E-06,  avg # of iterations =  1.6

     total cpu time spent up to now is        4.5 secs

     total energy              =     -25.70753522 Ry
     Harris-Foulkes estimate   =     -25.70755077 Ry
     estimated scf accuracy    <       0.00004020 Ry

     iteration #  6     ecut=    50.00 Ry     beta=0.70
     Davidson diagonalization with overlap
     ethr =  5.02E-07,  avg # of iterations =  2.9

     total cpu time spent up to now is        5.3 secs

     total energy              =     -25.70755154 Ry
     Harris-Foulkes estimate   =     -25.70755724 Ry
     estimated scf accuracy    <       0.00001376 Ry

     iteration #  7     ecut=    50.00 Ry     beta=0.70
     Davidson diagonalization with overlap
     ethr =  1.72E-07,  avg # of iterations =  2.0

     total cpu time spent up to now is        6.0 secs

     total energy              =     -25.70755246 Ry
     Harris-Foulkes estimate   =     -25.70755311 Ry
     estimated scf accuracy    <       0.00000116 Ry

     iteration #  8     ecut=    50.00 Ry     beta=0.70
     Davidson diagonalization with overlap
     ethr =  1.45E-08,  avg # of iterations =  3.0

     total cpu time spent up to now is        6.9 secs

     total energy              =     -25.70755317 Ry
     Harris-Foulkes estimate   =     -25.70755325 Ry
     estimated scf accuracy    <       0.00000033 Ry

     iteration #  9     ecut=    50.00 Ry     beta=0.70
     Davidson diagonalization with overlap
     ethr =  4.16E-09,  avg # of iterations =  1.0

     total cpu time spent up to now is        7.4 secs

     total energy              =     -25.70755312 Ry
     Harris-Foulkes estimate   =     -25.70755318 Ry
     estimated scf accuracy    <       0.00000016 Ry

     iteration # 10     ecut=    50.00 Ry     beta=0.70
     Davidson diagonalization with overlap
     ethr =  2.00E-09,  avg # of iterations =  1.9

     total cpu time spent up to now is        8.1 secs

     End of self-consistent calculation

          k = 0.0000 0.0000 0.0000 (  2301 PWs)   bands (ev):

   -20.4915  -8.1151  -4.0956  -4.0956

          k = 0.0000 0.0962 0.0000 (  2317 PWs)   bands (ev):

   -20.3583  -7.9356  -4.6630  -4.3674

          k = 0.0000 0.1925 0.0000 (  2307 PWs)   bands (ev):

   -19.9641  -7.3929  -6.0766  -5.0083

          k = 0.0000 0.2887 0.0000 (  2307 PWs)   bands (ev):

   -19.3364  -7.8678  -6.5260  -5.7581

          k = 0.0000 0.3849 0.0000 (  2301 PWs)   bands (ev):

   -18.5435  -9.6551  -6.3987  -5.4047

          k = 0.0000 0.4811 0.0000 (  2314 PWs)   bands (ev):

   -17.7637 -11.0963  -6.8196  -4.2424

          k = 0.0000-0.5774 0.0000 (  2292 PWs)   bands (ev):

   -17.3957 -11.6878  -6.9583  -3.6309

          k = 0.0833 0.1443 0.0000 (  2309 PWs)   bands (ev):

   -20.0940  -7.5727  -5.5800  -4.8906

          k = 0.0833 0.2406 0.0000 (  2308 PWs)   bands (ev):

   -19.5816  -7.0770  -6.8657  -5.6957

          k = 0.0833 0.3368 0.0000 (  2300 PWs)   bands (ev):

   -18.8648  -8.8014  -6.4547  -5.8642

          k = 0.0833 0.4330 0.0000 (  2299 PWs)   bands (ev):

   -18.0540 -10.4030  -7.0151  -4.6880

          k = 0.0833 0.5292 0.0000 (  2308 PWs)   bands (ev):

   -17.4267 -11.4605  -7.3155  -3.7043

          k = 0.1667 0.2887 0.0000 (  2313 PWs)   bands (ev):

   -18.9762  -8.3008  -6.7321  -6.0241

          k = 0.1667 0.3849 0.0000 (  2308 PWs)   bands (ev):

   -18.2184  -9.6726  -7.5983  -4.9406

          k = 0.1667 0.4811 0.0000 (  2295 PWs)   bands (ev):

   -17.4852 -10.8765  -8.1119  -3.8257

          k = 0.1667 0.5774 0.0000 (  2292 PWs)   bands (ev):

   -17.1463 -11.3914  -8.2827  -3.2601

          k = 0.2500 0.4330 0.0000 (  2293 PWs)   bands (ev):

   -17.5135 -10.4283  -8.6638  -3.8791

          k = 0.2500 0.5292 0.0000 (  2302 PWs)   bands (ev):

   -16.9986 -10.9784  -9.2551  -3.0381

          k = 0.3333 0.5774 0.0000 (  2289 PWs)   bands (ev):

   -16.8003 -10.8367  -9.8589  -2.6919

     highest occupied level (ev):    -2.6919

!    total energy              =     -25.70755314 Ry
     Harris-Foulkes estimate   =     -25.70755314 Ry
     estimated scf accuracy    <       0.00000001 Ry

     The total energy is the sum of the following terms:

     one-electron contribution =     -99.28219163 Ry
     hartree contribution      =      51.47500811 Ry
     xc contribution           =      -7.26886599 Ry
     ewald contribution        =      29.36849638 Ry

     convergence has been achieved in  10 iterations

     Writing output data file bn.save

     init_run     :      0.93s CPU      0.57s WALL (       1 calls)
     electrons    :     12.78s CPU      7.54s WALL (       1 calls)

     Called by init_run:
     wfcinit      :      0.86s CPU      0.48s WALL (       1 calls)
     potinit      :      0.02s CPU      0.02s WALL (       1 calls)

     Called by electrons:
     c_bands      :     11.10s CPU      6.33s WALL (      10 calls)
     sum_band     :      1.50s CPU      1.02s WALL (      10 calls)
     v_of_rho     :      0.10s CPU      0.09s WALL (      11 calls)
     mix_rho      :      0.06s CPU      0.06s WALL (      10 calls)

     Called by c_bands:
     init_us_2    :      0.10s CPU      0.06s WALL (     399 calls)
     cegterg      :     11.00s CPU      6.27s WALL (     190 calls)

     Called by *egterg:
     h_psi        :     11.05s CPU      6.26s WALL (     644 calls)
     g_psi        :      0.04s CPU      0.02s WALL (     435 calls)
     cdiaghg      :      0.17s CPU      0.10s WALL (     625 calls)

     Called by h_psi:
     add_vuspsi   :      0.08s CPU      0.04s WALL (     644 calls)

     General routines
     calbec       :      0.06s CPU      0.05s WALL (     644 calls)
     fft          :      0.05s CPU      0.06s WALL (      43 calls)
     fftw         :     11.26s CPU      6.52s WALL (    5452 calls)

     Parallel routines
     fft_scatter  :      0.78s CPU      0.46s WALL (    5495 calls)

     PWSCF        :    13.82s CPU         8.25s WALL


   This run was terminated on:  23:23: 6  16Nov2017            

=------------------------------------------------------------------------------=
   JOB DONE.
=------------------------------------------------------------------------------=
