
.Version 9.6.3 of ABINIT 
.(MPI version, prepared for a x86_64_linux_gnu9.4 computer) 

.Copyright (C) 1998-2021 ABINIT group . 
 ABINIT comes with ABSOLUTELY NO WARRANTY.
 It is free software, and you are welcome to redistribute it
 under certain conditions (GNU General Public License,
 see ~abinit/COPYING or http://www.gnu.org/copyleft/gpl.txt).

 ABINIT is a project of the Universite Catholique de Louvain,
 Corning Inc. and other collaborators, see ~abinit/doc/developers/contributors.txt .
 Please read https://docs.abinit.org/theory/acknowledgments for suggested
 acknowledgments of the ABINIT effort.
 For more information, see https://www.abinit.org .

.Starting date : Wed  9 Aug 2023.
- ( at 15h20 )
  
- input  file    -> 0D_H2.abi
- output file    -> 0D_H2.out
- root for input  files -> 0D_H2_i
- root for output files -> 0D_H2_o


 DATASET    1 : space group P4/m m m (#123); Bravais tP (primitive tetrag.)
================================================================================
 Values of the parameters that define the memory need for DATASET  1.
     intxc =       0    ionmov =       0      iscf =       3    lmnmax =       1
     lnmax =       1     mgfft =      54  mpssoang =       1    mqgrid =    3001
     natom =       2  nloc_mem =       1    nspden =       1   nspinor =       1
    nsppol =       1      nsym =      16    n1xccc =       0    ntypat =       1
    occopt =       1   xclevel =       1
-    mband =           4        mffmem =           1         mkmem =           1
       mpw =        4193          nfft =      157464          nkpt =           1
================================================================================
P This job should need less than                      33.835 Mbytes of memory.
  Rough estimation (10% accuracy) of disk space for files :
_ WF disk file :      0.258 Mbytes ; DEN or POT disk file :      1.203 Mbytes.
================================================================================


 DATASET    2 : space group P4/m m m (#123); Bravais tP (primitive tetrag.)
================================================================================
 Values of the parameters that define the memory need for DATASET  2.
     intxc =       0    ionmov =       0      iscf =      -2    lmnmax =       1
     lnmax =       1     mgfft =      54  mpssoang =       1    mqgrid =    3001
     natom =       2  nloc_mem =       1    nspden =       1   nspinor =       1
    nsppol =       1      nsym =      16    n1xccc =       0    ntypat =       1
    occopt =       1   xclevel =       1
-    mband =          50        mffmem =           1         mkmem =           1
       mpw =        8385          nfft =      157464          nkpt =           1
================================================================================
P This job should need less than                      35.818 Mbytes of memory.
  Rough estimation (10% accuracy) of disk space for files :
_ WF disk file :      6.399 Mbytes ; DEN or POT disk file :      1.203 Mbytes.
================================================================================

--------------------------------------------------------------------------------
------------- Echo of variables that govern the present computation ------------
--------------------------------------------------------------------------------
-
- outvars: echo of selected default values                                      
-   iomode0 =  0 , fftalg0 =112 , wfoptalg0 =  0
-
- outvars: echo of global parameters not present in the input file              
-  max_nthreads =    1
-
 -outvars: echo values of preprocessed input variables --------
-          iomode           3
            acell      1.5000000000E+01  1.5000000000E+01  1.5000000000E+01 Bohr
              amu      1.00794000E+00
           diemac      2.00000000E+00
             ecut      1.40000000E+01 Hartree
-          fftalg         112
           getden1          0
           getden2          1
           getwfk1          0
           getwfk2          1
             iscf1          3
             iscf2         -2
           istwfk1       2
           istwfk2       1
           jdtset        1    2
           kptopt           0
P           mkmem           1
            natom           2
            nband1          4
            nband2         50
           nbdbuf1          0
           nbdbuf2          2
           ndtset           2
            ngfft          54      54      54
             nkpt           1
            nstep1       1000
            nstep2       3000
             nsym          16
           ntypat           1
              occ      2.000000  0.000000  0.000000  0.000000
          prtkbff1          0
          prtkbff2          1
          spgroup         123
        symmorphi1          1
        symmorphi2          0
           symrel      1  0  0   0  1  0   0  0  1      -1  0  0   0 -1  0   0  0 -1
                      -1  0  0   0  1  0   0  0 -1       1  0  0   0 -1  0   0  0  1
                      -1  0  0   0 -1  0   0  0  1       1  0  0   0  1  0   0  0 -1
                       1  0  0   0 -1  0   0  0 -1      -1  0  0   0  1  0   0  0  1
                       1  0  0   0  0  1   0  1  0      -1  0  0   0  0 -1   0 -1  0
                      -1  0  0   0  0  1   0 -1  0       1  0  0   0  0 -1   0  1  0
                      -1  0  0   0  0 -1   0  1  0       1  0  0   0  0  1   0 -1  0
                       1  0  0   0  0 -1   0 -1  0      -1  0  0   0  0  1   0  1  0
           toldfe1     1.00000000E-12 Hartree
           toldfe2     0.00000000E+00 Hartree
           tolwfr1     0.00000000E+00
           tolwfr2     1.00000000E-10
            typat      1  1
           xangst     -1.0583544172E+00  0.0000000000E+00  0.0000000000E+00
                       1.0583544172E+00  0.0000000000E+00  0.0000000000E+00
            xcart     -2.0000000000E+00  0.0000000000E+00  0.0000000000E+00
                       2.0000000000E+00  0.0000000000E+00  0.0000000000E+00
             xred     -1.3333333333E-01  0.0000000000E+00  0.0000000000E+00
                       1.3333333333E-01  0.0000000000E+00  0.0000000000E+00
            znucl        1.00000

================================================================================

 chkinp: Checking input parameters for consistency, jdtset=   1.

 chkinp: Checking input parameters for consistency, jdtset=   2.

================================================================================
== DATASET  1 ==================================================================
-   mpi_nproc: 1, omp_nthreads: 1 (-1 if OMP is not activated)


--- !DatasetInfo
iteration_state: {dtset: 1, }
dimensions: {natom: 2, nkpt: 1, mband: 4, nsppol: 1, nspinor: 1, nspden: 1, mpw: 4193, }
cutoff_energies: {ecut:  14.0, pawecutdg:  -1.0, }
electrons: {nelect:   2.00000000E+00, charge:   0.00000000E+00, occopt:   1.00000000E+00, tsmear:   1.00000000E-02, }
meta: {optdriver: 0, ionmov: 0, optcell: 0, iscf: 3, paral_kgb: 0, }
...

 Exchange-correlation functional for the present dataset will be:
  LDA: new Teter (4/93) with spin-polarized option - ixc=1
 Citation for XC functional:
  S. Goedecker, M. Teter, J. Huetter, PRB 54, 1703 (1996)

 Real(R)+Recip(G) space primitive vectors, cartesian coordinates (Bohr,Bohr^-1):
 R(1)= 15.0000000  0.0000000  0.0000000  G(1)=  0.0666667  0.0000000  0.0000000
 R(2)=  0.0000000 15.0000000  0.0000000  G(2)=  0.0000000  0.0666667  0.0000000
 R(3)=  0.0000000  0.0000000 15.0000000  G(3)=  0.0000000  0.0000000  0.0666667
 Unit cell volume ucvol=  3.3750000E+03 bohr^3
 Angles (23,13,12)=  9.00000000E+01  9.00000000E+01  9.00000000E+01 degrees

 getcut: wavevector=  0.0000  0.0000  0.0000  ngfft=  54  54  54
         ecut(hartree)=     14.000   => boxcut(ratio)=   2.13734

--- Pseudopotential description ------------------------------------------------
- pspini: atom type   1  psp file is ../../pseudo/1h.pspnc
- pspatm: opening atomic psp file    ../../pseudo/1h.pspnc
-  Troullier-Martins psp for element  H         Thu Oct 27 17:28:54 EDT 1994
-  1.00000   1.00000    940714                znucl, zion, pspdat
    1    1    0    0      2001   0.00000      pspcod,pspxc,lmax,lloc,mmax,r2well
    0   7.740  11.990    0   1.5855604        l,e99.0,e99.9,nproj,rcpsp
   0.00000000   0.00000000   0.00000000   0.00000000     rms, ekb1, ekb2, epsatm
    0.00000000000000    0.00000000000000    0.00000000000000   rchrg,fchrg,qchrg
 Note: local psp for atom with Z=  1.0
  pspatm : epsatm=    0.04198703
         --- l  ekb(1:nproj) -->
 pspatm: atomic psp has been read  and splines computed

   1.67948119E-01                                ecore*ucvol(ha*bohr**3)
--------------------------------------------------------------------------------

_setup2: Arith. and geom. avg. npw (full set) are    8385.000    8385.000

================================================================================

--- !BeginCycle
iteration_state: {dtset: 1, }
solver: {iscf: 3, nstep: 1000, nline: 4, wfoptalg: 0, }
tolerances: {toldfe: 1.00E-12, }
...

     iter   Etot(hartree)      deltaE(h)  residm     vres2
 ETOT  1 -0.96302225224808    -9.630E-01 1.531E-03 4.226E+01
 ETOT  2 -0.96355437050545    -5.321E-04 2.078E-09 8.081E+00
 ETOT  3 -0.96356396755563    -9.597E-06 5.350E-07 1.973E-01
 ETOT  4 -0.96356650021874    -2.533E-06 8.264E-08 4.662E-03
 ETOT  5 -0.96356671110653    -2.109E-07 6.827E-09 2.580E-04
 ETOT  6 -0.96356671678499    -5.678E-09 1.852E-10 4.224E-05
 ETOT  7 -0.96356671682028    -3.529E-11 2.083E-12 4.900E-06
 ETOT  8 -0.96356671683732    -1.703E-11 7.632E-13 2.184E-07
 ETOT  9 -0.96356671684100    -3.683E-12 1.445E-13 8.670E-09
 ETOT 10 -0.96356671684115    -1.502E-13 5.849E-15 1.028E-09
 ETOT 11 -0.96356671684104     1.106E-13 7.293E-17 1.507E-10

 At SCF step   11, etot is converged : 
  for the second time, diff in etot=  1.106E-13 < toldfe=  1.000E-12

 Cartesian components of stress tensor (hartree/bohr^3)
  sigma(1 1)=  5.46825610E-05  sigma(3 2)=  0.00000000E+00
  sigma(2 2)=  4.68532618E-07  sigma(3 1)=  0.00000000E+00
  sigma(3 3)=  4.68532618E-07  sigma(2 1)=  0.00000000E+00


--- !ResultsGS
iteration_state: {dtset: 1, }
comment   : Summary of ground state results
lattice_vectors:
- [ 15.0000000,   0.0000000,   0.0000000, ]
- [  0.0000000,  15.0000000,   0.0000000, ]
- [  0.0000000,   0.0000000,  15.0000000, ]
lattice_lengths: [  15.00000,   15.00000,   15.00000, ]
lattice_angles: [ 90.000,  90.000,  90.000, ] # degrees, (23, 13, 12)
lattice_volume:   3.3750000E+03
convergence: {deltae:  1.106E-13, res2:  1.507E-10, residm:  7.293E-17, diffor: null, }
etotal    :  -9.63566717E-01
entropy   :   0.00000000E+00
fermie    :  -2.64674361E-01
cartesian_stress_tensor: # hartree/bohr^3
- [  5.46825610E-05,   0.00000000E+00,   0.00000000E+00, ]
- [  0.00000000E+00,   4.68532618E-07,   0.00000000E+00, ]
- [  0.00000000E+00,   0.00000000E+00,   4.68532618E-07, ]
pressure_GPa:  -5.4546E-01
xred      :
- [ -1.3333E-01,   0.0000E+00,   0.0000E+00,  H]
- [  1.3333E-01,   0.0000E+00,   0.0000E+00,  H]
cartesian_forces: # hartree/bohr
- [  4.49281901E-02,  -0.00000000E+00,  -0.00000000E+00, ]
- [ -4.49281901E-02,  -0.00000000E+00,  -0.00000000E+00, ]
force_length_stats: {min:   4.49281901E-02, max:   4.49281901E-02, mean:   4.49281901E-02, }
...

 Integrated electronic density in atomic spheres:
 ------------------------------------------------
 Atom  Sphere_radius  Integrated_density
    1        2.00000          0.69427037
    2        2.00000          0.69427037
================================================================================

 ----iterations are completed or convergence reached----

 Mean square residual over all n,k,spin=   38.122E-18; max=  72.931E-18
 reduced coordinates (array xred) for    2 atoms
      -0.133333333333      0.000000000000      0.000000000000
       0.133333333333      0.000000000000      0.000000000000
 rms dE/dt=  3.8909E-01; max dE/dt=  6.7392E-01; dE/dt below (all hartree)
    1      -0.673922851676      0.000000000000      0.000000000000
    2       0.673922851676      0.000000000000      0.000000000000

 cartesian coordinates (angstrom) at end:
    1     -1.05835441718000     0.00000000000000     0.00000000000000
    2      1.05835441718000     0.00000000000000     0.00000000000000

 cartesian forces (hartree/bohr) at end:
    1      0.04492819011172    -0.00000000000000    -0.00000000000000
    2     -0.04492819011172    -0.00000000000000    -0.00000000000000
 frms,max,avg= 2.5939303E-02 4.4928190E-02   0.000E+00  0.000E+00  0.000E+00 h/b

 cartesian forces (eV/Angstrom) at end:
    1      2.31030023103738    -0.00000000000000    -0.00000000000000
    2     -2.31030023103738    -0.00000000000000    -0.00000000000000
 frms,max,avg= 1.3338525E+00 2.3103002E+00   0.000E+00  0.000E+00  0.000E+00 e/A
 length scales= 15.000000000000 15.000000000000 15.000000000000 bohr
              =  7.937658128850  7.937658128850  7.937658128850 angstroms
 prteigrs : about to open file 0D_H2_o_DS1_EIG
 Fermi (or HOMO) energy (hartree) =  -0.26467   Average Vxc (hartree)=  -0.04213
 Eigenvalues (hartree) for nkpt=   1  k points:
 kpt#   1, nband=  4, wtk=  1.00000, kpt=  0.0000  0.0000  0.0000 (reduced coord)
  -0.26467   -0.18408   -0.01187    0.03485

--- !EnergyTerms
iteration_state     : {dtset: 1, }
comment             : Components of total free energy in Hartree
kinetic             :  6.96015185368232E-01
hartree             :  4.57878350359909E-01
xc                  : -4.65209245310580E-01
Ewald energy        : -1.17310054337265E-01
psp_core            :  4.97624057496752E-05
local_psp           : -1.53499071532709E+00
non_local_psp       :  0.00000000000000E+00
total_energy        : -9.63566716841039E-01
total_energy_eV     : -2.62199838066814E+01
band_energy         : -5.29348721746055E-01
...


 Cartesian components of stress tensor (hartree/bohr^3)
  sigma(1 1)=  5.46825610E-05  sigma(3 2)=  0.00000000E+00
  sigma(2 2)=  4.68532618E-07  sigma(3 1)=  0.00000000E+00
  sigma(3 3)=  4.68532618E-07  sigma(2 1)=  0.00000000E+00

-Cartesian components of stress tensor (GPa)         [Pressure= -5.4546E-01 GPa]
- sigma(1 1)=  1.60881622E+00  sigma(3 2)=  0.00000000E+00
- sigma(2 2)=  1.37847032E-02  sigma(3 1)=  0.00000000E+00
- sigma(3 3)=  1.37847032E-02  sigma(2 1)=  0.00000000E+00

================================================================================
== DATASET  2 ==================================================================
-   mpi_nproc: 1, omp_nthreads: 1 (-1 if OMP is not activated)


--- !DatasetInfo
iteration_state: {dtset: 2, }
dimensions: {natom: 2, nkpt: 1, mband: 50, nsppol: 1, nspinor: 1, nspden: 1, mpw: 8385, }
cutoff_energies: {ecut:  14.0, pawecutdg:  -1.0, }
electrons: {nelect:   2.00000000E+00, charge:   0.00000000E+00, occopt:   1.00000000E+00, tsmear:   1.00000000E-02, }
meta: {optdriver: 0, ionmov: 0, optcell: 0, iscf: -2, paral_kgb: 0, }
...

 mkfilename : getwfk/=0, take file _WFK from output of DATASET   1.

 mkfilename : getden/=0, take file _DEN from output of DATASET   1.

 Exchange-correlation functional for the present dataset will be:
  LDA: new Teter (4/93) with spin-polarized option - ixc=1
 Citation for XC functional:
  S. Goedecker, M. Teter, J. Huetter, PRB 54, 1703 (1996)

 Real(R)+Recip(G) space primitive vectors, cartesian coordinates (Bohr,Bohr^-1):
 R(1)= 15.0000000  0.0000000  0.0000000  G(1)=  0.0666667  0.0000000  0.0000000
 R(2)=  0.0000000 15.0000000  0.0000000  G(2)=  0.0000000  0.0666667  0.0000000
 R(3)=  0.0000000  0.0000000 15.0000000  G(3)=  0.0000000  0.0000000  0.0666667
 Unit cell volume ucvol=  3.3750000E+03 bohr^3
 Angles (23,13,12)=  9.00000000E+01  9.00000000E+01  9.00000000E+01 degrees

 getcut: wavevector=  0.0000  0.0000  0.0000  ngfft=  54  54  54
         ecut(hartree)=     14.000   => boxcut(ratio)=   2.13734
--------------------------------------------------------------------------------

-inwffil : will read wavefunctions from disk file 0D_H2_o_DS1_WFK.nc

================================================================================
 prteigrs : about to open file 0D_H2_o_DS2_EIG
 Non-SCF case, kpt    1 (  0.00000  0.00000  0.00000), residuals and eigenvalues=
  1.74E-17  3.14E-17  8.14E-16  7.56E-15  3.69E-11  3.38E-11  8.90E-12  4.77E-11
  1.95E-11  1.15E-11  3.48E-11  2.56E-12  2.26E-11  4.00E-12  1.29E-11  9.44E-12
  1.80E-11  3.68E-12  5.80E-11  5.10E-12  7.73E-11  1.66E-11  9.01E-11  7.70E-11
  2.77E-12  1.70E-11  1.20E-11  1.39E-11  2.32E-11  1.09E-11  9.03E-12  7.85E-11
  1.35E-11  1.93E-11  2.53E-11  4.97E-11  2.86E-11  5.44E-11  3.72E-11  6.06E-11
  8.27E-11  9.91E-11  1.02E-11  9.02E-11  2.70E-11  4.89E-11  8.80E-11  9.36E-11
  3.67E-10  1.65E-07
 -2.6467E-01 -1.8408E-01 -1.1872E-02  3.4854E-02  3.4854E-02  4.8119E-02
  6.4628E-02  7.6904E-02  9.7242E-02  1.2369E-01  1.2369E-01  1.2469E-01
  1.2469E-01  1.3989E-01  1.4019E-01  1.4847E-01  1.4847E-01  1.5199E-01
  1.5418E-01  1.7782E-01  2.0978E-01  2.2318E-01  2.2318E-01  2.2762E-01
  2.2885E-01  2.2885E-01  2.3231E-01  2.4384E-01  2.4891E-01  2.8381E-01
  2.9461E-01  2.9461E-01  3.0511E-01  3.3366E-01  3.5897E-01  3.6835E-01
  3.6878E-01  3.6878E-01  3.7855E-01  3.7855E-01  3.8969E-01  3.9066E-01
  3.9087E-01  3.9087E-01  3.9131E-01  3.9675E-01  4.0238E-01  4.0238E-01
  4.0639E-01  4.0639E-01
  prteigrs : nnsclo,ikpt= 3000    1 max resid (incl. the buffer)=  1.65194E-07


--- !ResultsGS
iteration_state: {dtset: 2, }
comment   : Summary of ground state results
lattice_vectors:
- [ 15.0000000,   0.0000000,   0.0000000, ]
- [  0.0000000,  15.0000000,   0.0000000, ]
- [  0.0000000,   0.0000000,  15.0000000, ]
lattice_lengths: [  15.00000,   15.00000,   15.00000, ]
lattice_angles: [ 90.000,  90.000,  90.000, ] # degrees, (23, 13, 12)
lattice_volume:   3.3750000E+03
convergence: {deltae:  0.000E+00, res2:  0.000E+00, residm:  9.906E-11, diffor:  0.000E+00, }
etotal    :  -9.63566717E-01
entropy   :   0.00000000E+00
fermie    :  -2.64674361E-01
cartesian_stress_tensor: null
pressure_GPa: null
xred      :
- [ -1.3333E-01,   0.0000E+00,   0.0000E+00,  H]
- [  1.3333E-01,   0.0000E+00,   0.0000E+00,  H]
cartesian_forces: null
force_length_stats: {min: null, max: null, mean: null, }
...

 Integrated electronic density in atomic spheres:
 ------------------------------------------------
 Atom  Sphere_radius  Integrated_density
    1        2.00000          0.69427037
    2        2.00000          0.69427037
================================================================================

 ----iterations are completed or convergence reached----

 Mean square residual over all n,k,spin=   33.038E-12; max=  99.063E-12
 reduced coordinates (array xred) for    2 atoms
      -0.133333333333      0.000000000000      0.000000000000
       0.133333333333      0.000000000000      0.000000000000

 cartesian coordinates (angstrom) at end:
    1     -1.05835441718000     0.00000000000000     0.00000000000000
    2      1.05835441718000     0.00000000000000     0.00000000000000
 length scales= 15.000000000000 15.000000000000 15.000000000000 bohr
              =  7.937658128850  7.937658128850  7.937658128850 angstroms
 prteigrs : about to open file 0D_H2_o_DS2_EIG
 Eigenvalues (hartree) for nkpt=   1  k points:
 kpt#   1, nband= 50, wtk=  1.00000, kpt=  0.0000  0.0000  0.0000 (reduced coord)
  -0.26467   -0.18408   -0.01187    0.03485    0.03485    0.04812    0.06463    0.07690
   0.09724    0.12369    0.12369    0.12469    0.12469    0.13989    0.14019    0.14847
   0.14847    0.15199    0.15418    0.17782    0.20978    0.22318    0.22318    0.22762
   0.22885    0.22885    0.23231    0.24384    0.24891    0.28381    0.29461    0.29461
   0.30511    0.33366    0.35897    0.36835    0.36878    0.36878    0.37855    0.37855
   0.38969    0.39066    0.39087    0.39087    0.39131    0.39675    0.40238    0.40238
   0.40639    0.40639

== END DATASET(S) ==============================================================
================================================================================
  
 -outvars: echo values of variables after computation  --------
-          iomode           3
            acell      1.5000000000E+01  1.5000000000E+01  1.5000000000E+01 Bohr
              amu      1.00794000E+00
           diemac      2.00000000E+00
             ecut      1.40000000E+01 Hartree
           etotal1    -9.6356671684E-01
            fcart1     4.4928190112E-02 -0.0000000000E+00 -0.0000000000E+00
                      -4.4928190112E-02 -0.0000000000E+00 -0.0000000000E+00
-          fftalg         112
           getden1          0
           getden2          1
           getwfk1          0
           getwfk2          1
             iscf1          3
             iscf2         -2
           istwfk1       2
           istwfk2       1
           jdtset        1    2
           kptopt           0
P           mkmem           1
            natom           2
            nband1          4
            nband2         50
           nbdbuf1          0
           nbdbuf2          2
           ndtset           2
            ngfft          54      54      54
             nkpt           1
            nstep1       1000
            nstep2       3000
             nsym          16
           ntypat           1
              occ      2.000000  0.000000  0.000000  0.000000
          prtkbff1          0
          prtkbff2          1
          spgroup         123
           strten1     5.4682561023E-05  4.6853261801E-07  4.6853261801E-07
                       0.0000000000E+00  0.0000000000E+00  0.0000000000E+00
        symmorphi1          1
        symmorphi2          0
           symrel      1  0  0   0  1  0   0  0  1      -1  0  0   0 -1  0   0  0 -1
                      -1  0  0   0  1  0   0  0 -1       1  0  0   0 -1  0   0  0  1
                      -1  0  0   0 -1  0   0  0  1       1  0  0   0  1  0   0  0 -1
                       1  0  0   0 -1  0   0  0 -1      -1  0  0   0  1  0   0  0  1
                       1  0  0   0  0  1   0  1  0      -1  0  0   0  0 -1   0 -1  0
                      -1  0  0   0  0  1   0 -1  0       1  0  0   0  0 -1   0  1  0
                      -1  0  0   0  0 -1   0  1  0       1  0  0   0  0  1   0 -1  0
                       1  0  0   0  0 -1   0 -1  0      -1  0  0   0  0  1   0  1  0
           toldfe1     1.00000000E-12 Hartree
           toldfe2     0.00000000E+00 Hartree
           tolwfr1     0.00000000E+00
           tolwfr2     1.00000000E-10
            typat      1  1
           xangst     -1.0583544172E+00  0.0000000000E+00  0.0000000000E+00
                       1.0583544172E+00  0.0000000000E+00  0.0000000000E+00
            xcart     -2.0000000000E+00  0.0000000000E+00  0.0000000000E+00
                       2.0000000000E+00  0.0000000000E+00  0.0000000000E+00
             xred     -1.3333333333E-01  0.0000000000E+00  0.0000000000E+00
                       1.3333333333E-01  0.0000000000E+00  0.0000000000E+00
            znucl        1.00000

================================================================================


- Timing analysis has been suppressed with timopt=0



================================================================================

 Suggested references for the acknowledgment of ABINIT usage.

 The users of ABINIT have little formal obligations with respect to the ABINIT group
 (those specified in the GNU General Public License, http://www.gnu.org/copyleft/gpl.txt).
 However, it is common practice in the scientific literature,
 to acknowledge the efforts of people that have made the research possible.
 In this spirit, please find below suggested citations of work written by ABINIT developers,
 corresponding to implementations inside of ABINIT that you have used in the present run.
 Note also that it will be of great value to readers of publications presenting these results,
 to read papers enabling them to understand the theoretical formalism and details
 of the ABINIT implementation.
 For information on why they are suggested, see also https://docs.abinit.org/theory/acknowledgments.
-
- [1] Specification of an extensible and portable file format for electronic structure and crystallographic data
- X. Gonze, C.-O. Almbladh, A. Cucca, D. Caliste, C. Freysoldt, M. Marques, V. Olevano, Y. Pouillon, M.J. Verstraete,
- Comput. Material Science 43, 1056 (2008).
- Comment: to be cited in case the ETSF_IO file format is used, i.e. iomode=3.
- DOI and bibtex: see https://docs.abinit.org/theory/bibliography/#gonze2008
-
- [2] The Abinit project: Impact, environment and recent developments.
- Computer Phys. Comm. 248, 107042 (2020).
- X.Gonze, B. Amadon, G. Antonius, F.Arnardi, L.Baguet, J.-M.Beuken,
- J.Bieder, F.Bottin, J.Bouchet, E.Bousquet, N.Brouwer, F.Bruneval,
- G.Brunin, T.Cavignac, J.-B. Charraud, Wei Chen, M.Cote, S.Cottenier,
- J.Denier, G.Geneste, Ph.Ghosez, M.Giantomassi, Y.Gillet, O.Gingras,
- D.R.Hamann, G.Hautier, Xu He, N.Helbig, N.Holzwarth, Y.Jia, F.Jollet,
- W.Lafargue-Dit-Hauret, K.Lejaeghere, M.A.L.Marques, A.Martin, C.Martins,
- H.P.C. Miranda, F.Naccarato, K. Persson, G.Petretto, V.Planes, Y.Pouillon,
- S.Prokhorenko, F.Ricci, G.-M.Rignanese, A.H.Romero, M.M.Schmitt, M.Torrent,
- M.J.van Setten, B.Van Troeye, M.J.Verstraete, G.Zerah and J.W.Zwanzig
- Comment: the fifth generic paper describing the ABINIT project.
- Note that a version of this paper, that is not formatted for Computer Phys. Comm. 
- is available at https://www.abinit.org/sites/default/files/ABINIT20.pdf .
- The licence allows the authors to put it on the Web.
- DOI and bibtex: see https://docs.abinit.org/theory/bibliography/#gonze2020
-
- [3] ABINIT: Overview, and focus on selected capabilities
- J. Chem. Phys. 152, 124102 (2020).
- A. Romero, D.C. Allan, B. Amadon, G. Antonius, T. Applencourt, L.Baguet,
- J.Bieder, F.Bottin, J.Bouchet, E.Bousquet, F.Bruneval,
- G.Brunin, D.Caliste, M.Cote,
- J.Denier, C. Dreyer, Ph.Ghosez, M.Giantomassi, Y.Gillet, O.Gingras,
- D.R.Hamann, G.Hautier, F.Jollet, G. Jomard,
- A.Martin, 
- H.P.C. Miranda, F.Naccarato, G.Petretto, N.A. Pike, V.Planes,
- S.Prokhorenko, T. Rangel, F.Ricci, G.-M.Rignanese, M.Royo, M.Stengel, M.Torrent,
- M.J.van Setten, B.Van Troeye, M.J.Verstraete, J.Wiktor, J.W.Zwanziger, and X.Gonze.
- Comment: a global overview of ABINIT, with focus on selected capabilities .
- Note that a version of this paper, that is not formatted for J. Chem. Phys 
- is available at https://www.abinit.org/sites/default/files/ABINIT20_JPC.pdf .
- The licence allows the authors to put it on the Web.
- DOI and bibtex: see https://docs.abinit.org/theory/bibliography/#romero2020
-
- [4] Recent developments in the ABINIT software package.
- Computer Phys. Comm. 205, 106 (2016).
- X.Gonze, F.Jollet, F.Abreu Araujo, D.Adams, B.Amadon, T.Applencourt,
- C.Audouze, J.-M.Beuken, J.Bieder, A.Bokhanchuk, E.Bousquet, F.Bruneval
- D.Caliste, M.Cote, F.Dahm, F.Da Pieve, M.Delaveau, M.Di Gennaro,
- B.Dorado, C.Espejo, G.Geneste, L.Genovese, A.Gerossier, M.Giantomassi,
- Y.Gillet, D.R.Hamann, L.He, G.Jomard, J.Laflamme Janssen, S.Le Roux,
- A.Levitt, A.Lherbier, F.Liu, I.Lukacevic, A.Martin, C.Martins,
- M.J.T.Oliveira, S.Ponce, Y.Pouillon, T.Rangel, G.-M.Rignanese,
- A.H.Romero, B.Rousseau, O.Rubel, A.A.Shukri, M.Stankovski, M.Torrent,
- M.J.Van Setten, B.Van Troeye, M.J.Verstraete, D.Waroquier, J.Wiktor,
- B.Xu, A.Zhou, J.W.Zwanziger.
- Comment: the fourth generic paper describing the ABINIT project.
- Note that a version of this paper, that is not formatted for Computer Phys. Comm. 
- is available at https://www.abinit.org/sites/default/files/ABINIT16.pdf .
- The licence allows the authors to put it on the Web.
- DOI and bibtex: see https://docs.abinit.org/theory/bibliography/#gonze2016
-
- And optionally:
-
- [5] ABINIT: First-principles approach of materials and nanosystem properties.
- Computer Phys. Comm. 180, 2582-2615 (2009).
- X. Gonze, B. Amadon, P.-M. Anglade, J.-M. Beuken, F. Bottin, P. Boulanger, F. Bruneval,
- D. Caliste, R. Caracas, M. Cote, T. Deutsch, L. Genovese, Ph. Ghosez, M. Giantomassi
- S. Goedecker, D.R. Hamann, P. Hermet, F. Jollet, G. Jomard, S. Leroux, M. Mancini, S. Mazevet,
- M.J.T. Oliveira, G. Onida, Y. Pouillon, T. Rangel, G.-M. Rignanese, D. Sangalli, R. Shaltaf,
- M. Torrent, M.J. Verstraete, G. Zerah, J.W. Zwanziger
- Comment: the third generic paper describing the ABINIT project.
- Note that a version of this paper, that is not formatted for Computer Phys. Comm. 
- is available at https://www.abinit.org/sites/default/files/ABINIT_CPC_v10.pdf .
- The licence allows the authors to put it on the Web.
- DOI and bibtex: see https://docs.abinit.org/theory/bibliography/#gonze2009
-
- Proc.   0 individual time (sec): cpu=          8.4  wall=         11.2

================================================================================

 Calculation completed.
.Delivered   3 WARNINGs and  12 COMMENTs to log file.
+Overall time at end (sec) : cpu=          8.4  wall=         11.2
