
     Program PWSCF v.5.0.1 (svn rev. 9278) starts on  1Apr2013 at 18:39:39 

     This program is part of the open-source Quantum ESPRESSO suite
     for quantum simulation of materials; please cite
         "P. Giannozzi et al., J. Phys.:Condens. Matter 21 395502 (2009);
          URL http://www.quantum-espresso.org", 
     in publications or presentations arising from this work. More details at
     http://www.quantum-espresso.org/quote.php

     Parallel version (MPI & OpenMP), running on    1024 processor cores
     Number of MPI processes:                64
     Threads/MPI process:                    16
     R & G space division:  proc/pool =      64
     wavefunctions fft division:  fft/group =       4

     Current dimensions of program PWSCF are:
     Max number of different atomic species (ntypx) = 10
     Max number of k-points (npk) =  40000
     Max angular momentum in pseudopotentials (lmaxx) =  3
     Reading input from si100_c4x2_12L-scf.in

     Subspace diagonalization in iterative solution of the eigenvalue problem:
     scalapack distributed-memory algorithm (size of sub-group:  5*  5 procs)


   Task Groups are in USE
   groups and procs/group :     4   16
 
     Parallelization info
     --------------------
     sticks:   dense  smooth     PW     G-vecs:    dense   smooth      PW
     Min          13      13      3                 1143     1143     157
     Max          14      14      4                 1166     1166     182
     Sum         865     865    237                73829    73829   11005
 

     Title: 
     Si100 c4x2 12L                                                             


     bravais-lattice index     =            0
     lattice parameter (alat)  =      10.1910  a.u.
     unit-cell volume          =   11642.4154 (a.u.)^3
     number of atoms/cell      =           48
     number of atomic types    =            1
     number of electrons       =       192.00
     number of Kohn-Sham states=           96
     kinetic-energy cutoff     =      13.0000  Ry
     charge density cutoff     =      52.0000  Ry
     convergence threshold     =      1.0E-08
     mixing beta               =       0.3000
     number of iterations used =            8  plain     mixing
     Exchange-correlation      =  SLA  PZ   NOGX NOGC ( 1 1 0 0 0)
     EXX-fraction              =        0.00

     celldm(1)=  10.191000  celldm(2)=   0.000000  celldm(3)=   0.000000
     celldm(4)=   0.000000  celldm(5)=   0.000000  celldm(6)=   0.000000

     crystal axes: (cart. coord. in units of alat)
               a(1) = (   1.414214  -0.707107   0.000000 )  
               a(2) = (   1.414214   0.707107   0.000000 )  
               a(3) = (   0.000000   0.000000   5.500000 )  

     reciprocal axes: (cart. coord. in units 2 pi/alat)
               b(1) = (  0.353553 -0.707107  0.000000 )  
               b(2) = (  0.353553  0.707107  0.000000 )  
               b(3) = (  0.000000  0.000000  0.181818 )  


     PseudoPot. # 1 for Si read from file:
     Si.pz-vbc.UPF
     MD5 check sum: dc3b11d017da532b29132e08c0a6883c
     Pseudo is Norm-conserving, Zval =  4.0
     Generated by new atomic code, or converted to UPF format
     Using radial grid of  431 points,  2 beta functions with: 
                l(1) =   0
                l(2) =   1

     atomic species   valence    mass     pseudopotential
        Si             4.00    28.08600     Si( 1.00)

      2 Sym. Ops., with inversion, found


                                    s                        frac. trans.

      isym =  1     identity                                     

 cryst.   s( 1) = (     1          0          0      )
                  (     0          1          0      )
                  (     0          0          1      )

 cart.    s( 1) = (  1.0000000  0.0000000  0.0000000 )
                  (  0.0000000  1.0000000  0.0000000 )
                  (  0.0000000  0.0000000  1.0000000 )


      isym =  2     inversion                                    

 cryst.   s( 2) = (    -1          0          0      )
                  (     0         -1          0      )
                  (     0          0         -1      )

 cart.    s( 2) = ( -1.0000000  0.0000000  0.0000000 )
                  (  0.0000000 -1.0000000  0.0000000 )
                  (  0.0000000  0.0000000 -1.0000000 )


     point group C_i (-1)   
     there are  2 classes
     the character table:

       E     i    
A_g    1.00  1.00
A_u    1.00 -1.00

     the symmetry operations in each class:
     E        1
     i        2

   Cartesian axes

     site n.     atom                  positions (alat units)
         1           Si  tau(   1) = (   0.0584838  -0.3535505   1.4007466  )
         2           Si  tau(   2) = (  -0.4122533   0.3535598   1.4002178  )
         3           Si  tau(   3) = (  -0.0045499   0.3535555   1.2642638  )
         4           Si  tau(   4) = (  -0.3487374  -0.3535484   1.2638190  )
         5           Si  tau(   5) = (   0.1594703  -0.0219660   1.1339056  )
         6           Si  tau(   6) = (   0.1594704   0.7290779   1.1339062  )
         7           Si  tau(   7) = (  -0.5127173   0.0219868   1.1331361  )
         8           Si  tau(   8) = (  -0.5127149   0.6851299   1.1331304  )
         9           Si  tau(   9) = (  -0.1762649   0.0000055   0.8545924  )
        10           Si  tau(  10) = (  -0.1762616   0.7070963   0.8545901  )
        11           Si  tau(  11) = (   0.5302211  -0.0025407   0.8990340  )
        12           Si  tau(  12) = (   0.5302217   0.7096466   0.8990359  )
        13           Si  tau(  13) = (  -0.1781350   0.3535502   0.6126304  )
        14           Si  tau(  14) = (  -0.1755817  -0.3535550   0.6128300  )
        15           Si  tau(  15) = (   0.5305291   0.3535536   0.6409126  )
        16           Si  tau(  16) = (   0.5304677  -0.3535547   0.6364565  )
        17           Si  tau(  17) = (   0.1767767   0.3535534   0.3750000  )
        18           Si  tau(  18) = (   0.1767767  -0.3535534   0.3750000  )
        19           Si  tau(  19) = (  -0.5303301   0.3535534   0.3750000  )
        20           Si  tau(  20) = (  -0.5303301  -0.3535534   0.3750000  )
        21           Si  tau(  21) = (   0.1767767   0.0000000   0.1250000  )
        22           Si  tau(  22) = (   0.1767767   0.7071068   0.1250000  )
        23           Si  tau(  23) = (  -0.5303301   0.0000000   0.1250000  )
        24           Si  tau(  24) = (  -0.5303301   0.7071068   0.1250000  )
        25           Si  tau(  25) = (  -0.1767767   0.0000000  -0.1250000  )
        26           Si  tau(  26) = (  -0.1767767  -0.7071068  -0.1250000  )
        27           Si  tau(  27) = (   0.5303301   0.0000000  -0.1250000  )
        28           Si  tau(  28) = (   0.5303301  -0.7071068  -0.1250000  )
        29           Si  tau(  29) = (  -0.1767767   0.3535534  -0.3750000  )
        30           Si  tau(  30) = (  -0.1767767  -0.3535534  -0.3750000  )
        31           Si  tau(  31) = (   0.5303301   0.3535534  -0.3750000  )
        32           Si  tau(  32) = (   0.5303301  -0.3535534  -0.3750000  )
        33           Si  tau(  33) = (   0.1755817   0.3535550  -0.6128300  )
        34           Si  tau(  34) = (   0.1781350  -0.3535502  -0.6126304  )
        35           Si  tau(  35) = (  -0.5304677   0.3535547  -0.6364565  )
        36           Si  tau(  36) = (  -0.5305291  -0.3535536  -0.6409126  )
        37           Si  tau(  37) = (   0.1762649  -0.0000055  -0.8545924  )
        38           Si  tau(  38) = (   0.1762616  -0.7070963  -0.8545901  )
        39           Si  tau(  39) = (  -0.5302211   0.0025407  -0.8990340  )
        40           Si  tau(  40) = (  -0.5302217  -0.7096466  -0.8990359  )
        41           Si  tau(  41) = (  -0.1594703   0.0219660  -1.1339056  )
        42           Si  tau(  42) = (  -0.1594704  -0.7290779  -1.1339062  )
        43           Si  tau(  43) = (   0.5127173  -0.0219868  -1.1331361  )
        44           Si  tau(  44) = (   0.5127149  -0.6851299  -1.1331304  )
        45           Si  tau(  45) = (   0.0045499  -0.3535555  -1.2642638  )
        46           Si  tau(  46) = (   0.3487374   0.3535484  -1.2638190  )
        47           Si  tau(  47) = (  -0.0584838   0.3535505  -1.4007466  )
        48           Si  tau(  48) = (   0.4122533  -0.3535598  -1.4002178  )

   Crystallographic axes

     site n.     atom                  positions (cryst. coord.)
         1           Si  tau(   1) = (  0.2706751 -0.2293208  0.2546812  )
         2           Si  tau(   2) = ( -0.3957581  0.1042510  0.2545851  )
         3           Si  tau(   3) = ( -0.2516101  0.2483929  0.2298661  )
         4           Si  tau(   4) = (  0.1266992 -0.3732938  0.2297853  )
         5           Si  tau(   5) = (  0.0719136  0.0408490  0.2061647  )
         6           Si  tau(   6) = ( -0.4591546  0.5719172  0.2061648  )
         7           Si  tau(   7) = ( -0.1968199 -0.1657259  0.2060247  )
         8           Si  tau(   8) = ( -0.6657321  0.3031879  0.2060237  )
         9           Si  tau(   9) = ( -0.0623229 -0.0623152  0.1553804  )
        10           Si  tau(  10) = ( -0.5623105  0.4376747  0.1553800  )
        11           Si  tau(  11) = (  0.1892580  0.1856649  0.1634607  )
        12           Si  tau(  12) = ( -0.3143343  0.6892576  0.1634611  )
        13           Si  tau(  13) = ( -0.3129780  0.1870175  0.1113873  )
        14           Si  tau(  14) = (  0.1879236 -0.3120786  0.1114236  )
        15           Si  tau(  15) = ( -0.0624298  0.4375705  0.1165296  )
        16           Si  tau(  16) = (  0.4375496 -0.0624523  0.1157194  )
        17           Si  tau(  17) = ( -0.1875000  0.3125000  0.0681818  )
        18           Si  tau(  18) = (  0.3125000 -0.1875000  0.0681818  )
        19           Si  tau(  19) = ( -0.4375000  0.0625000  0.0681818  )
        20           Si  tau(  20) = (  0.0625000 -0.4375000  0.0681818  )
        21           Si  tau(  21) = (  0.0625000  0.0625000  0.0227273  )
        22           Si  tau(  22) = ( -0.4375000  0.5625000  0.0227273  )
        23           Si  tau(  23) = ( -0.1875000 -0.1875000  0.0227273  )
        24           Si  tau(  24) = ( -0.6875000  0.3125000  0.0227273  )
        25           Si  tau(  25) = ( -0.0625000 -0.0625000 -0.0227273  )
        26           Si  tau(  26) = (  0.4375000 -0.5625000 -0.0227273  )
        27           Si  tau(  27) = (  0.1875000  0.1875000 -0.0227273  )
        28           Si  tau(  28) = (  0.6875000 -0.3125000 -0.0227273  )
        29           Si  tau(  29) = ( -0.3125000  0.1875000 -0.0681818  )
        30           Si  tau(  30) = (  0.1875000 -0.3125000 -0.0681818  )
        31           Si  tau(  31) = ( -0.0625000  0.4375000 -0.0681818  )
        32           Si  tau(  32) = (  0.4375000 -0.0625000 -0.0681818  )
        33           Si  tau(  33) = ( -0.1879236  0.3120786 -0.1114236  )
        34           Si  tau(  34) = (  0.3129780 -0.1870175 -0.1113873  )
        35           Si  tau(  35) = ( -0.4375496  0.0624523 -0.1157194  )
        36           Si  tau(  36) = (  0.0624298 -0.4375705 -0.1165296  )
        37           Si  tau(  37) = (  0.0623229  0.0623152 -0.1553804  )
        38           Si  tau(  38) = (  0.5623105 -0.4376747 -0.1553800  )
        39           Si  tau(  39) = ( -0.1892580 -0.1856649 -0.1634607  )
        40           Si  tau(  40) = (  0.3143343 -0.6892576 -0.1634611  )
        41           Si  tau(  41) = ( -0.0719136 -0.0408490 -0.2061647  )
        42           Si  tau(  42) = (  0.4591546 -0.5719172 -0.2061648  )
        43           Si  tau(  43) = (  0.1968199  0.1657259 -0.2060247  )
        44           Si  tau(  44) = (  0.6657321 -0.3031879 -0.2060237  )
        45           Si  tau(  45) = (  0.2516101 -0.2483929 -0.2298661  )
        46           Si  tau(  46) = ( -0.1266992  0.3732938 -0.2297853  )
        47           Si  tau(  47) = ( -0.2706751  0.2293208 -0.2546812  )
        48           Si  tau(  48) = (  0.3957581 -0.1042510 -0.2545851  )

     number of k points=     2
                       cart. coord. in units 2pi/alat
        k(    1) = (   0.1767767   0.0000000   0.0000000), wk =   1.0000000
        k(    2) = (   0.0000000  -0.3535534   0.0000000), wk =   1.0000000

                       cryst. coord.
        k(    1) = (   0.2500000   0.2500000   0.0000000), wk =   1.0000000
        k(    2) = (   0.2500000  -0.2500000   0.0000000), wk =   1.0000000

     Dense  grid:    73829 G-vectors     FFT dimensions: (  40,  40, 135)

     Largest allocated arrays     est. size (Mb)     dimensions
        Kohn-Sham Wavefunctions         0.21 Mb     (    145,   96)
        NL pseudopotentials             0.42 Mb     (    145,  192)
        Each V/rho on FFT grid          0.07 Mb     (   4800)
        Each G-vector array             0.01 Mb     (   1151)
        G-vector shells                 0.00 Mb     (    578)
     Largest temporary arrays     est. size (Mb)     dimensions
        Auxiliary wavefunctions         0.85 Mb     (    145,  384)
        Each subspace H/S matrix        0.09 Mb     (  76,  76)
        Each <psi_i|beta_j> matrix      0.28 Mb     (    192,   96)
        Arrays for rho mixing           0.59 Mb     (   4800,   8)
     writing wfc files to a dedicated directory

     Initial potential from superposition of free atoms
     Check: negative starting charge=   -0.005564

     starting charge  191.97619, renormalised to  192.00000

     negative rho (up, down):  0.556E-02 0.000E+00
     Starting wfc are  192 randomized atomic wfcs

     total cpu time spent up to now is        2.0 secs

     per-process dynamical memory:    23.5 Mb

     Self-consistent Calculation

     iteration #  1     ecut=    13.00 Ry     beta=0.30
     Davidson diagonalization with overlap
     ethr =  1.00E-02,  avg # of iterations =  2.0

     Threshold (ethr) on eigenvalues was too large:
     Diagonalizing with lowered threshold

     Davidson diagonalization with overlap
     ethr =  9.58E-04,  avg # of iterations =  2.0

     negative rho (up, down):  0.373E-02 0.000E+00

     total cpu time spent up to now is        5.3 secs

     total energy              =    -378.84365418 Ry
     Harris-Foulkes estimate   =    -379.33557242 Ry
     estimated scf accuracy    <       1.88259013 Ry

     iteration #  2     ecut=    13.00 Ry     beta=0.30
     Davidson diagonalization with overlap
     ethr =  9.81E-04,  avg # of iterations =  2.0

     negative rho (up, down):  0.252E-02 0.000E+00

     total cpu time spent up to now is        7.0 secs

     total energy              =    -378.78737253 Ry
     Harris-Foulkes estimate   =    -378.99567638 Ry
     estimated scf accuracy    <       0.80711013 Ry

     iteration #  3     ecut=    13.00 Ry     beta=0.30
     Davidson diagonalization with overlap
     ethr =  4.20E-04,  avg # of iterations =  3.5

     negative rho (up, down):  0.116E-02 0.000E+00

     total cpu time spent up to now is        9.7 secs

     total energy              =    -378.72058980 Ry
     Harris-Foulkes estimate   =    -378.94376308 Ry
     estimated scf accuracy    <       0.93814303 Ry

     iteration #  4     ecut=    13.00 Ry     beta=0.30
     Davidson diagonalization with overlap
     ethr =  4.20E-04,  avg # of iterations =  3.0

     negative rho (up, down):  0.282E-03 0.000E+00

     total cpu time spent up to now is       12.0 secs

     total energy              =    -378.80848498 Ry
     Harris-Foulkes estimate   =    -378.84090826 Ry
     estimated scf accuracy    <       0.16032723 Ry

     iteration #  5     ecut=    13.00 Ry     beta=0.30
     Davidson diagonalization with overlap
     ethr =  8.35E-05,  avg # of iterations =  2.5

     negative rho (up, down):  0.904E-04 0.000E+00

     total cpu time spent up to now is       14.1 secs

     total energy              =    -378.82188493 Ry
     Harris-Foulkes estimate   =    -378.82398961 Ry
     estimated scf accuracy    <       0.01023513 Ry

     iteration #  6     ecut=    13.00 Ry     beta=0.30
     Davidson diagonalization with overlap
     ethr =  5.33E-06,  avg # of iterations =  3.5

     negative rho (up, down):  0.135E-05 0.000E+00

     total cpu time spent up to now is       16.9 secs

     total energy              =    -378.82283054 Ry
     Harris-Foulkes estimate   =    -378.82409682 Ry
     estimated scf accuracy    <       0.00472964 Ry

     iteration #  7     ecut=    13.00 Ry     beta=0.30
     Davidson diagonalization with overlap
     ethr =  2.46E-06,  avg # of iterations =  3.0

     total cpu time spent up to now is       19.3 secs

     total energy              =    -378.82328916 Ry
     Harris-Foulkes estimate   =    -378.82362685 Ry
     estimated scf accuracy    <       0.00149922 Ry

     iteration #  8     ecut=    13.00 Ry     beta=0.30
     Davidson diagonalization with overlap
     ethr =  7.81E-07,  avg # of iterations =  3.0

     total cpu time spent up to now is       21.6 secs

     total energy              =    -378.82346291 Ry
     Harris-Foulkes estimate   =    -378.82348271 Ry
     estimated scf accuracy    <       0.00008972 Ry

     iteration #  9     ecut=    13.00 Ry     beta=0.30
     Davidson diagonalization with overlap
     ethr =  4.67E-08,  avg # of iterations =  3.0

     total cpu time spent up to now is       24.0 secs

     total energy              =    -378.82346991 Ry
     Harris-Foulkes estimate   =    -378.82347411 Ry
     estimated scf accuracy    <       0.00001527 Ry

     iteration # 10     ecut=    13.00 Ry     beta=0.30
     Davidson diagonalization with overlap
     ethr =  7.95E-09,  avg # of iterations =  4.5

     total cpu time spent up to now is       27.4 secs

     total energy              =    -378.82347260 Ry
     Harris-Foulkes estimate   =    -378.82347326 Ry
     estimated scf accuracy    <       0.00000353 Ry

     iteration # 11     ecut=    13.00 Ry     beta=0.30
     Davidson diagonalization with overlap
     ethr =  1.84E-09,  avg # of iterations =  3.0

     total cpu time spent up to now is       29.6 secs

     total energy              =    -378.82347285 Ry
     Harris-Foulkes estimate   =    -378.82347290 Ry
     estimated scf accuracy    <       0.00000029 Ry

     iteration # 12     ecut=    13.00 Ry     beta=0.30
     Davidson diagonalization with overlap
     ethr =  1.50E-10,  avg # of iterations =  5.0

     total cpu time spent up to now is       34.0 secs

     total energy              =    -378.82347292 Ry
     Harris-Foulkes estimate   =    -378.82347294 Ry
     estimated scf accuracy    <       0.00000012 Ry

     iteration # 13     ecut=    13.00 Ry     beta=0.30
     Davidson diagonalization with overlap
     ethr =  6.28E-11,  avg # of iterations =  3.0

     total cpu time spent up to now is       36.3 secs

     total energy              =    -378.82347293 Ry
     Harris-Foulkes estimate   =    -378.82347293 Ry
     estimated scf accuracy    <       0.00000001 Ry

     iteration # 14     ecut=    13.00 Ry     beta=0.30
     Davidson diagonalization with overlap
     ethr =  6.18E-12,  avg # of iterations =  2.5

     total cpu time spent up to now is       38.1 secs

     End of self-consistent calculation

          k = 0.1768 0.0000 0.0000 (  9221 PWs)   bands (ev):

   -10.7092 -10.5623 -10.1138  -9.5411  -9.4200  -9.1665  -8.8094  -8.6683
    -8.6210  -8.5874  -8.4522  -8.4196  -8.4164  -8.1097  -7.7540  -7.6998
    -7.6696  -7.6443  -7.4865  -7.4095  -7.3911  -7.2970  -7.2797  -7.2245
    -6.0474  -5.7482  -5.7218  -5.6761  -5.6386  -5.5691  -5.5648  -5.5607
    -5.5606  -5.4734  -5.2648  -5.1669  -5.0728  -4.8970  -4.7111  -4.5904
    -4.5856  -4.2478  -4.0218  -3.5522  -3.0904  -3.0028  -2.8732  -2.7259
    -2.6662  -2.4818  -2.4494  -2.3121  -2.2329  -2.2079  -2.0313  -2.0311
    -1.9217  -1.8771  -1.8557  -1.8186  -1.7657  -1.7179  -1.6439  -1.6155
    -1.5188  -1.4355  -1.3467  -1.2718  -1.2147  -1.1211  -0.9526  -0.9002
    -0.8758  -0.7789  -0.7389  -0.7210  -0.6723  -0.6631  -0.6116  -0.4986
    -0.4741  -0.4727  -0.3430  -0.1160  -0.0956   0.1542   0.1677   0.2071
     0.3122   0.3578   0.3683   0.5484   0.6095   0.7620   0.8029   0.9390

     occupation numbers 
     1.0000   1.0000   1.0000   1.0000   1.0000   1.0000   1.0000   1.0000
     1.0000   1.0000   1.0000   1.0000   1.0000   1.0000   1.0000   1.0000
     1.0000   1.0000   1.0000   1.0000   1.0000   1.0000   1.0000   1.0000
     1.0000   1.0000   1.0000   1.0000   1.0000   1.0000   1.0000   1.0000
     1.0000   1.0000   1.0000   1.0000   1.0000   1.0000   1.0000   1.0000
     1.0000   1.0000   1.0000   1.0000   1.0000   1.0000   1.0000   1.0000
     1.0000   1.0000   1.0000   1.0000   1.0000   1.0000   1.0000   1.0000
     1.0000   1.0000   1.0000   1.0000   1.0000   1.0000   1.0000   1.0000
     1.0000   1.0000   1.0000   1.0000   1.0000   1.0000   1.0000   1.0000
     1.0000   1.0000   1.0000   1.0000   1.0000   1.0000   1.0000   1.0000
     1.0000   1.0000   1.0000   1.0000   1.0000   1.0000   1.0000   1.0000
     1.0000   1.0000   1.0000   1.0000   1.0000   1.0000   1.0000   1.0000

          k = 0.0000-0.3536 0.0000 (  9216 PWs)   bands (ev):

   -10.2796 -10.1072  -9.9238  -9.8633  -9.6633  -9.5177  -9.3839  -9.1034
    -8.9711  -8.8293  -8.4911  -8.2234  -8.1615  -8.0931  -8.0822  -8.0120
    -7.9302  -7.6267  -7.5009  -7.4845  -7.2592  -6.9856  -6.7649  -6.5932
    -6.5450  -6.1286  -5.8771  -5.5399  -5.4953  -5.4411  -5.4216  -5.1687
    -5.0190  -5.0179  -4.7955  -4.7824  -4.4404  -4.0619  -3.9610  -3.7482
    -3.7332  -3.6351  -3.3088  -3.2748  -3.2187  -3.0763  -3.0299  -2.9897
    -2.9729  -2.8557  -2.8142  -2.7997  -2.7625  -2.5439  -2.4770  -2.4097
    -2.3911  -2.3803  -2.3766  -2.2258  -2.1666  -2.1273  -2.0601  -1.9581
    -1.9134  -1.8905  -1.7627  -1.5390  -1.5160  -1.3558  -1.2784  -1.1795
    -1.1603  -1.0761  -1.0411  -0.9343  -0.9241  -0.7410  -0.7379  -0.7301
    -0.6832  -0.5602  -0.5522  -0.4195  -0.3634  -0.3615  -0.2004  -0.0864
    -0.0560   0.0785   0.1668   0.6361   0.7553   0.7903   0.8333   0.8338

     occupation numbers 
     1.0000   1.0000   1.0000   1.0000   1.0000   1.0000   1.0000   1.0000
     1.0000   1.0000   1.0000   1.0000   1.0000   1.0000   1.0000   1.0000
     1.0000   1.0000   1.0000   1.0000   1.0000   1.0000   1.0000   1.0000
     1.0000   1.0000   1.0000   1.0000   1.0000   1.0000   1.0000   1.0000
     1.0000   1.0000   1.0000   1.0000   1.0000   1.0000   1.0000   1.0000
     1.0000   1.0000   1.0000   1.0000   1.0000   1.0000   1.0000   1.0000
     1.0000   1.0000   1.0000   1.0000   1.0000   1.0000   1.0000   1.0000
     1.0000   1.0000   1.0000   1.0000   1.0000   1.0000   1.0000   1.0000
     1.0000   1.0000   1.0000   1.0000   1.0000   1.0000   1.0000   1.0000
     1.0000   1.0000   1.0000   1.0000   1.0000   1.0000   1.0000   1.0000
     1.0000   1.0000   1.0000   1.0000   1.0000   1.0000   1.0000   1.0000
     1.0000   1.0000   1.0000   1.0000   1.0000   1.0000   1.0000   1.0000

!    total energy              =    -378.82347293 Ry
     Harris-Foulkes estimate   =    -378.82347293 Ry
     estimated scf accuracy    <          6.7E-09 Ry

     The total energy is the sum of the following terms:

     one-electron contribution =   -4274.25979332 Ry
     hartree contribution      =    2184.93528092 Ry
     xc contribution           =    -114.47228925 Ry
     ewald contribution        =    1824.97332872 Ry

     convergence has been achieved in  14 iterations

     Writing output data file si100-c4x2-out.save
 
     init_run     :      1.67s CPU      1.67s WALL (       1 calls)
     electrons    :     36.10s CPU     36.10s WALL (       1 calls)

     Called by init_run:
     wfcinit      :      0.77s CPU      0.77s WALL (       1 calls)
     potinit      :      0.09s CPU      0.09s WALL (       1 calls)

     Called by electrons:
     c_bands      :     33.34s CPU     33.34s WALL (      15 calls)
     sum_band     :      1.30s CPU      1.30s WALL (      15 calls)
     v_of_rho     :      0.07s CPU      0.07s WALL (      15 calls)
     v_h          :      0.02s CPU      0.02s WALL (      15 calls)
     v_xc         :      0.05s CPU      0.05s WALL (      15 calls)
     mix_rho      :      0.05s CPU      0.05s WALL (      15 calls)

     Called by c_bands:
     init_us_2    :      0.09s CPU      0.09s WALL (      62 calls)
     cegterg      :     32.82s CPU     32.82s WALL (      30 calls)

     Called by sum_band:

     Called by *egterg:
     h_psi        :      5.11s CPU      5.11s WALL (     123 calls)
     g_psi        :      0.16s CPU      0.16s WALL (      91 calls)
     cdiaghg      :     25.66s CPU     25.66s WALL (     119 calls)
     cegterg:over :      0.70s CPU      0.70s WALL (      91 calls)
     cegterg:upda :      0.44s CPU      0.44s WALL (      91 calls)
     cegterg:last :      0.12s CPU      0.12s WALL (      30 calls)
     cdiaghg:chol :      0.86s CPU      0.86s WALL (     119 calls)
     cdiaghg:inve :      0.66s CPU      0.66s WALL (     119 calls)
     cdiaghg:para :      0.58s CPU      0.58s WALL (     238 calls)

     Called by h_psi:
     h_psi:vloc   :      4.51s CPU      4.51s WALL (     123 calls)
     h_psi:vnl    :      0.58s CPU      0.58s WALL (     123 calls)
     add_vuspsi   :      0.36s CPU      0.36s WALL (     123 calls)

     General routines
     calbec       :      0.22s CPU      0.22s WALL (     123 calls)
     fft          :      0.06s CPU      0.06s WALL (      61 calls)
     fftw         :      4.54s CPU      4.54s WALL (    4578 calls)
     davcio       :      0.60s CPU      0.60s WALL (      94 calls)
 
     Parallel routines
     fft_scatter  :      1.74s CPU      1.74s WALL (    4639 calls)
     ALLTOALL     :      0.80s CPU      0.81s WALL (    4528 calls)
 
     PWSCF        :    39.63s CPU        39.63s WALL

 
   This run was terminated on:  18:40:19   1Apr2013            

=------------------------------------------------------------------------------=
   JOB DONE.
=------------------------------------------------------------------------------=
