
     Program PROJWFC v.6.6 starts on 21Oct2020 at 17:49:17 

     This program is part of the open-source Quantum ESPRESSO suite
     for quantum simulation of materials; please cite
         "P. Giannozzi et al., J. Phys.:Condens. Matter 21 395502 (2009);
         "P. Giannozzi et al., J. Phys.:Condens. Matter 29 465901 (2017);
          URL http://www.quantum-espresso.org", 
     in publications or presentations arising from this work. More details at
     http://www.quantum-espresso.org/quote

     Parallel version (MPI), running on     1 processors

     MPI processes distributed on     1 nodes
     Fft bands division:     nmany     =       1

     Reading xml data from directory:

     ./mos2.save/

     IMPORTANT: XC functional enforced from input :
     Exchange-correlation= PZ
                           (   1   1   0   0   0   0   0)
     Any further DFT definition will be discarded
     Please, verify this is what you really want


     G-vector sticks info
     --------------------
     sticks:   dense  smooth     PW     G-vecs:    dense   smooth      PW
     Sum         583     583    163                56613    56613    9123


     Check: negative core charge=   -0.000110

     Gaussian broadening (read from input): ngauss,degauss=   0    0.007430


     Calling projwave .... 

  Problem Sizes 
  natomwfc =           28
  nbnd     =           40
  nkstot   =            6
  npwx     =         7087
  nkb      =           25


     Atomic states used for projection
     (read from pseudopotential files):

     state #   1: atom   1 (Mo ), wfc  1 (l=0 m= 1)
     state #   2: atom   1 (Mo ), wfc  2 (l=0 m= 1)
     state #   3: atom   1 (Mo ), wfc  3 (l=1 m= 1)
     state #   4: atom   1 (Mo ), wfc  3 (l=1 m= 2)
     state #   5: atom   1 (Mo ), wfc  3 (l=1 m= 3)
     state #   6: atom   1 (Mo ), wfc  4 (l=2 m= 1)
     state #   7: atom   1 (Mo ), wfc  4 (l=2 m= 2)
     state #   8: atom   1 (Mo ), wfc  4 (l=2 m= 3)
     state #   9: atom   1 (Mo ), wfc  4 (l=2 m= 4)
     state #  10: atom   1 (Mo ), wfc  4 (l=2 m= 5)
     state #  11: atom   2 (S  ), wfc  1 (l=0 m= 1)
     state #  12: atom   2 (S  ), wfc  2 (l=1 m= 1)
     state #  13: atom   2 (S  ), wfc  2 (l=1 m= 2)
     state #  14: atom   2 (S  ), wfc  2 (l=1 m= 3)
     state #  15: atom   2 (S  ), wfc  3 (l=2 m= 1)
     state #  16: atom   2 (S  ), wfc  3 (l=2 m= 2)
     state #  17: atom   2 (S  ), wfc  3 (l=2 m= 3)
     state #  18: atom   2 (S  ), wfc  3 (l=2 m= 4)
     state #  19: atom   2 (S  ), wfc  3 (l=2 m= 5)
     state #  20: atom   3 (S  ), wfc  1 (l=0 m= 1)
     state #  21: atom   3 (S  ), wfc  2 (l=1 m= 1)
     state #  22: atom   3 (S  ), wfc  2 (l=1 m= 2)
     state #  23: atom   3 (S  ), wfc  2 (l=1 m= 3)
     state #  24: atom   3 (S  ), wfc  3 (l=2 m= 1)
     state #  25: atom   3 (S  ), wfc  3 (l=2 m= 2)
     state #  26: atom   3 (S  ), wfc  3 (l=2 m= 3)
     state #  27: atom   3 (S  ), wfc  3 (l=2 m= 4)
     state #  28: atom   3 (S  ), wfc  3 (l=2 m= 5)

 k =   0.0000000000  0.0000000000  0.0000000000
==== e(   1) =   -59.90648 eV ==== 
     psi = 0.957*[#   1]+0.025*[#   2]+0.006*[#  12]+0.006*[#  21]+0.004*[#   6]
          
    |psi|^2 = 1.000
==== e(   2) =   -34.46278 eV ==== 
     psi = 0.016*[#  15]+0.016*[#  24]+0.003*[#  11]+0.003*[#  20]
    |psi|^2 = 0.039
==== e(   3) =   -34.05439 eV ==== 
     psi = 0.953*[#   3]+0.491*[#   4]+0.491*[#   5]+0.004*[#  12]+0.004*[#  21]
          +0.003*[#  18]+0.003*[#  19]+0.003*[#  27]+0.003*[#  28]+0.002*[#  16]
          +0.002*[#  17]+0.002*[#  25]+0.002*[#  26]
    |psi|^2 = 1.961
==== e(   4) =   -34.05439 eV ==== 
     psi = 0.491*[#   4]+0.491*[#   5]+0.003*[#  18]+0.003*[#  19]+0.003*[#  27]
          +0.003*[#  28]+0.002*[#  16]+0.002*[#  17]+0.002*[#  25]+0.002*[#  26]
          
    |psi|^2 = 1.000
==== e(   5) =   -13.94081 eV ==== 
     psi = 0.448*[#   2]+0.249*[#  11]+0.249*[#  20]+0.021*[#   1]+0.011*[#  15]
          +0.011*[#  24]+0.004*[#  12]+0.004*[#  21]
    |psi|^2 = 0.999
==== e(   6) =   -12.56549 eV ==== 
     psi = 0.358*[#  11]+0.358*[#  20]+0.126*[#  15]+0.126*[#  24]
    |psi|^2 = 0.967
==== e(   7) =    -5.47482 eV ==== 
     psi = 0.324*[#   6]+0.038*[#   2]+0.030*[#  15]+0.030*[#  24]+0.027*[#  11]
          +0.027*[#  20]+0.026*[#   3]+0.020*[#   1]
    |psi|^2 = 0.523
==== e(   8) =    -2.20804 eV ==== 
     psi = 0.318*[#   9]+0.318*[#  10]+0.078*[#  13]+0.078*[#  14]+0.078*[#  22]
          +0.078*[#  23]+0.011*[#  16]+0.011*[#  17]+0.011*[#  25]+0.011*[#  26]
          +0.001*[#  18]+0.001*[#  19]+0.001*[#  27]+0.001*[#  28]
    |psi|^2 = 0.999
==== e(   9) =    -2.20804 eV ==== 
     psi = 0.318*[#   9]+0.318*[#  10]+0.078*[#  13]+0.078*[#  14]+0.078*[#  22]
          +0.078*[#  23]+0.011*[#  16]+0.011*[#  17]+0.011*[#  25]+0.011*[#  26]
          +0.001*[#  18]+0.001*[#  19]+0.001*[#  27]+0.001*[#  28]
    |psi|^2 = 0.999
==== e(  10) =    -1.56129 eV ==== 
     psi = 0.039*[#  12]+0.039*[#  21]+0.002*[#  15]+0.002*[#  24]
    |psi|^2 = 0.083
==== e(  11) =    -1.06362 eV ==== 
     psi = 0.481*[#  12]+0.481*[#  21]+0.268*[#   7]+0.268*[#   8]+0.105*[#  13]
          +0.105*[#  14]+0.105*[#  22]+0.105*[#  23]+0.010*[#   3]+0.007*[#  18]
          +0.007*[#  19]+0.007*[#  27]+0.007*[#  28]+0.003*[#  16]+0.003*[#  17]
          +0.003*[#  25]+0.003*[#  26]
    |psi|^2 = 1.970
==== e(  12) =    -1.06362 eV ==== 
     psi = 0.268*[#   7]+0.268*[#   8]+0.105*[#  13]+0.105*[#  14]+0.105*[#  22]
          +0.105*[#  23]+0.007*[#  18]+0.007*[#  19]+0.007*[#  27]+0.007*[#  28]
          +0.003*[#  16]+0.003*[#  17]+0.003*[#  25]+0.003*[#  26]
    |psi|^2 = 0.997
==== e(  13) =     0.23169 eV ==== 
     psi = 0.471*[#   6]+0.188*[#  12]+0.188*[#  21]+0.044*[#  15]+0.044*[#  24]
          +0.009*[#  11]+0.009*[#  20]+0.003*[#   2]
    |psi|^2 = 0.954
==== e(  14) =     3.35506 eV ==== 
     psi = 0.172*[#   7]+0.172*[#   8]+0.140*[#  13]+0.140*[#  14]+0.140*[#  22]
          +0.140*[#  23]+0.021*[#  18]+0.021*[#  19]+0.021*[#  27]+0.021*[#  28]
          +0.001*[#  16]+0.001*[#  17]+0.001*[#  25]+0.001*[#  26]
    |psi|^2 = 0.993
==== e(  15) =     3.35506 eV ==== 
     psi = 0.172*[#   7]+0.172*[#   8]+0.140*[#  13]+0.140*[#  14]+0.140*[#  22]
          +0.140*[#  23]+0.021*[#  18]+0.021*[#  19]+0.021*[#  27]+0.021*[#  28]
          +0.001*[#  16]+0.001*[#  17]+0.001*[#  25]+0.001*[#  26]
    |psi|^2 = 0.993
==== e(  16) =     3.64984 eV ==== 
     psi = 0.210*[#  12]+0.210*[#  21]+0.168*[#  13]+0.168*[#  14]+0.168*[#  22]
          +0.168*[#  23]+0.139*[#   9]+0.139*[#  10]+0.006*[#  16]+0.006*[#  17]
          +0.006*[#  25]+0.006*[#  26]+0.005*[#  18]+0.005*[#  19]+0.005*[#  27]
          +0.005*[#  28]
    |psi|^2 = 1.416
==== e(  17) =     3.64984 eV ==== 
     psi = 0.168*[#  13]+0.168*[#  14]+0.168*[#  22]+0.168*[#  23]+0.139*[#   9]
          +0.139*[#  10]+0.006*[#  16]+0.006*[#  17]+0.006*[#  25]+0.006*[#  26]
          +0.005*[#  18]+0.005*[#  19]+0.005*[#  27]+0.005*[#  28]
    |psi|^2 = 0.996
==== e(  18) =     5.10156 eV ==== 
     psi = 0.253*[#  12]+0.253*[#  21]+0.050*[#  15]+0.050*[#  24]+0.038*[#   6]
          +0.032*[#   2]+0.006*[#  11]+0.006*[#  20]+0.001*[#   3]
    |psi|^2 = 0.689
==== e(  19) =     5.76759 eV ==== 
     psi = 0.058*[#  15]+0.058*[#  24]+0.013*[#  11]+0.013*[#  20]
    |psi|^2 = 0.143
==== e(  20) =     6.60814 eV ==== 
     psi = 0.284*[#   2]+0.116*[#  11]+0.116*[#  20]+0.031*[#   6]+0.001*[#  15]
          +0.001*[#  24]+0.001*[#   1]
    |psi|^2 = 0.552
==== e(  21) =     7.13810 eV ==== 
     psi = 0.204*[#  15]+0.204*[#  24]+0.063*[#   6]+0.063*[#   2]+0.058*[#  11]
          +0.058*[#  20]+0.016*[#  12]+0.016*[#  21]
    |psi|^2 = 0.681
==== e(  22) =     8.65928 eV ==== 
     psi = 0.031*[#  15]+0.031*[#  24]+0.008*[#  11]+0.008*[#  20]
    |psi|^2 = 0.077
==== e(  23) =     9.55254 eV ==== 
     psi = 0.259*[#  15]+0.259*[#  24]+0.114*[#  11]+0.114*[#  20]+0.003*[#  12]
          +0.003*[#  21]
    |psi|^2 = 0.752
==== e(  24) =    10.44566 eV ==== 
     psi = 0.041*[#   2]+0.041*[#   6]+0.029*[#  15]+0.029*[#  24]+0.011*[#  11]
          +0.011*[#  20]
    |psi|^2 = 0.162
==== e(  25) =    11.26254 eV ==== 
     psi = 0.232*[#  18]+0.232*[#  19]+0.232*[#  27]+0.232*[#  28]+0.006*[#  16]
          +0.006*[#  17]+0.006*[#  25]+0.006*[#  26]+0.006*[#   4]+0.006*[#   5]
          +0.005*[#   9]+0.005*[#  10]+0.002*[#  13]+0.002*[#  14]+0.002*[#  22]
          +0.002*[#  23]
    |psi|^2 = 0.983
==== e(  26) =    11.26254 eV ==== 
     psi = 0.232*[#  18]+0.232*[#  19]+0.232*[#  27]+0.232*[#  28]+0.009*[#   3]
          +0.006*[#  16]+0.006*[#  17]+0.006*[#  25]+0.006*[#  26]+0.006*[#   4]
          +0.006*[#   5]+0.005*[#   9]+0.005*[#  10]+0.003*[#  12]+0.003*[#  21]
          +0.002*[#  13]+0.002*[#  14]+0.002*[#  22]+0.002*[#  23]
    |psi|^2 = 0.998
==== e(  27) =    13.28071 eV ==== 
     psi = 0.171*[#  18]+0.171*[#  19]+0.171*[#  27]+0.171*[#  28]+0.060*[#  16]
          +0.060*[#  17]+0.060*[#  25]+0.060*[#  26]+0.023*[#   7]+0.023*[#   8]
          +0.003*[#  13]+0.003*[#  14]+0.003*[#  22]+0.003*[#  23]
    |psi|^2 = 0.986
==== e(  28) =    13.28071 eV ==== 
     psi = 0.171*[#  18]+0.171*[#  19]+0.171*[#  27]+0.171*[#  28]+0.060*[#  16]
          +0.060*[#  17]+0.060*[#  25]+0.060*[#  26]+0.023*[#   7]+0.023*[#   8]
          +0.003*[#  13]+0.003*[#  14]+0.003*[#  22]+0.003*[#  23]+0.003*[#   3]
          
    |psi|^2 = 0.991
==== e(  29) =    13.44489 eV ==== 
     psi = 0.111*[#  15]+0.111*[#  24]+0.033*[#   2]+0.019*[#   6]+0.016*[#  12]
          +0.016*[#  21]+0.002*[#  11]+0.002*[#  20]
    |psi|^2 = 0.310
==== e(  30) =    13.52437 eV ==== 
     psi = 0.001*[#  11]+0.001*[#  15]+0.001*[#  20]+0.001*[#  24]
    |psi|^2 = 0.005
==== e(  31) =    15.44608 eV ==== 
     psi = 0.013*[#  15]+0.013*[#  24]+0.010*[#  11]+0.010*[#  20]+0.010*[#   2]
          
    |psi|^2 = 0.059
==== e(  32) =    16.68609 eV ==== 
     psi = 0.175*[#  16]+0.175*[#  17]+0.175*[#  25]+0.175*[#  26]+0.049*[#  18]
          +0.049*[#  19]+0.049*[#  27]+0.049*[#  28]+0.033*[#   7]+0.033*[#   8]
          
    |psi|^2 = 0.962
==== e(  33) =    16.68609 eV ==== 
     psi = 0.175*[#  16]+0.175*[#  17]+0.175*[#  25]+0.175*[#  26]+0.049*[#  18]
          +0.049*[#  19]+0.049*[#  27]+0.049*[#  28]+0.033*[#   7]+0.033*[#   8]
          
    |psi|^2 = 0.962
==== e(  34) =    16.69548 eV ==== 

    |psi|^2 = 0.001
==== e(  35) =    17.11353 eV ==== 
     psi = 0.222*[#  16]+0.222*[#  17]+0.222*[#  25]+0.222*[#  26]+0.037*[#   9]
          +0.037*[#  10]+0.005*[#  18]+0.005*[#  19]+0.005*[#  27]+0.005*[#  28]
          +0.003*[#  12]+0.003*[#  21]+0.002*[#   4]+0.002*[#   5]
    |psi|^2 = 0.993
==== e(  36) =    17.11353 eV ==== 
     psi = 0.222*[#  16]+0.222*[#  17]+0.222*[#  25]+0.222*[#  26]+0.037*[#   9]
          +0.037*[#  10]+0.005*[#  18]+0.005*[#  19]+0.005*[#  27]+0.005*[#  28]
          +0.002*[#   4]+0.002*[#   5]
    |psi|^2 = 0.987
==== e(  37) =    18.96084 eV ==== 
     psi = 0.003*[#  15]+0.003*[#  24]+0.003*[#   2]+0.003*[#  11]+0.003*[#  20]
          +0.002*[#  12]+0.002*[#  21]+0.002*[#   6]
    |psi|^2 = 0.021
==== e(  38) =    19.66028 eV ==== 

    |psi|^2 = 0.003
==== e(  39) =    20.55792 eV ==== 

    |psi|^2 = 0.003
==== e(  40) =    21.28255 eV ==== 
     psi = 0.006*[#   2]+0.003*[#  11]+0.003*[#  20]+0.001*[#   6]
    |psi|^2 = 0.013

 k =   0.0000000000  0.3849001795  0.0000000000
==== e(   1) =   -59.86299 eV ==== 
     psi = 0.869*[#   1]+0.019*[#  16]+0.019*[#  17]+0.019*[#  25]+0.019*[#  26]
          +0.009*[#   2]+0.007*[#  18]+0.007*[#  19]+0.007*[#  27]+0.007*[#  28]
          +0.003*[#  15]+0.003*[#  24]+0.002*[#  13]+0.002*[#  14]+0.002*[#  22]
          +0.002*[#  23]+0.001*[#   9]+0.001*[#  10]+0.001*[#  12]+0.001*[#  21]
          
    |psi|^2 = 1.000
==== e(   2) =   -34.42072 eV ==== 
     psi = 0.473*[#   4]+0.473*[#   5]+0.006*[#   2]+0.005*[#  15]+0.005*[#  24]
          +0.003*[#  18]+0.003*[#  19]+0.003*[#  27]+0.003*[#  28]+0.002*[#  16]
          +0.002*[#  17]+0.002*[#  25]+0.002*[#  26]+0.001*[#  11]+0.001*[#  20]
          
    |psi|^2 = 0.991
==== e(   3) =   -34.38741 eV ==== 
     psi = 0.005*[#  12]+0.005*[#  21]+0.003*[#  18]+0.003*[#  19]+0.003*[#  27]
          +0.003*[#  28]+0.003*[#  13]+0.003*[#  14]+0.003*[#  22]+0.003*[#  23]
          +0.002*[#  15]+0.002*[#  24]+0.002*[#  11]+0.002*[#  20]+0.001*[#  16]
          +0.001*[#  17]+0.001*[#  25]+0.001*[#  26]
    |psi|^2 = 0.047
==== e(   4) =   -34.13786 eV ==== 
     psi = 0.487*[#   4]+0.487*[#   5]+0.004*[#  16]+0.004*[#  17]+0.004*[#  25]
          +0.004*[#  26]+0.001*[#  13]+0.001*[#  14]+0.001*[#  22]+0.001*[#  23]
          
    |psi|^2 = 1.000
==== e(   5) =   -12.47215 eV ==== 
     psi = 0.314*[#  11]+0.314*[#  20]+0.141*[#   2]+0.025*[#  18]+0.025*[#  19]
          +0.025*[#  27]+0.025*[#  28]+0.023*[#   9]+0.023*[#  10]+0.008*[#   1]
          +0.008*[#   4]+0.008*[#   5]+0.008*[#  15]+0.008*[#  24]+0.006*[#  12]
          +0.006*[#  21]+0.005*[#  13]+0.005*[#  14]+0.005*[#  22]+0.005*[#  23]
          +0.004*[#   6]+0.002*[#  16]+0.002*[#  17]+0.002*[#  25]+0.002*[#  26]
          
    |psi|^2 = 0.999
==== e(   6) =   -11.97981 eV ==== 
     psi = 0.362*[#  11]+0.362*[#  20]+0.078*[#   7]+0.078*[#   8]+0.017*[#  18]
          +0.017*[#  19]+0.017*[#  27]+0.017*[#  28]+0.007*[#  15]+0.007*[#  24]
          +0.003*[#  13]+0.003*[#  14]+0.003*[#  22]+0.003*[#  23]+0.003*[#  16]
          +0.003*[#  17]+0.003*[#  25]+0.003*[#  26]
    |psi|^2 = 0.987
==== e(   7) =    -5.09623 eV ==== 
     psi = 0.145*[#   9]+0.145*[#  10]+0.095*[#  13]+0.095*[#  14]+0.095*[#  22]
          +0.095*[#  23]+0.070*[#   6]+0.036*[#   2]+0.019*[#  15]+0.019*[#  24]
          +0.010*[#  11]+0.010*[#  20]+0.009*[#   3]+0.005*[#   1]+0.002*[#  16]
          +0.002*[#  17]+0.002*[#  18]+0.002*[#  19]+0.002*[#  25]+0.002*[#  26]
          +0.002*[#  27]+0.002*[#  28]+0.002*[#   4]+0.002*[#   5]+0.001*[#  12]
          +0.001*[#  21]
    |psi|^2 = 0.868
==== e(   8) =    -4.03983 eV ==== 
     psi = 0.146*[#  13]+0.146*[#  14]+0.146*[#  22]+0.146*[#  23]+0.110*[#   7]
          +0.110*[#   8]+0.017*[#  11]+0.017*[#  20]+0.009*[#  15]+0.009*[#  24]
          +0.004*[#  16]+0.004*[#  17]+0.004*[#  25]+0.004*[#  26]+0.002*[#  18]
          +0.002*[#  19]+0.002*[#  27]+0.002*[#  28]
    |psi|^2 = 0.880
==== e(   9) =    -3.57817 eV ==== 
     psi = 0.181*[#  12]+0.181*[#  21]+0.130*[#   6]+0.060*[#   2]+0.051*[#  13]
          +0.051*[#  14]+0.051*[#  22]+0.051*[#  23]+0.041*[#  11]+0.041*[#  20]
          +0.019*[#  16]+0.019*[#  17]+0.019*[#  25]+0.019*[#  26]+0.011*[#   9]
          +0.011*[#  10]+0.009*[#   1]+0.007*[#  18]+0.007*[#  19]+0.007*[#  27]
          +0.007*[#  28]+0.006*[#   4]+0.006*[#   5]+0.006*[#  15]+0.006*[#  24]
          
    |psi|^2 = 0.997
==== e(  10) =    -2.52216 eV ==== 
     psi = 0.250*[#   7]+0.250*[#   8]+0.117*[#  13]+0.117*[#  14]+0.117*[#  22]
          +0.117*[#  23]+0.005*[#  18]+0.005*[#  19]+0.005*[#  27]+0.005*[#  28]
          +0.004*[#  16]+0.004*[#  17]+0.004*[#  25]+0.004*[#  26]
    |psi|^2 = 0.999
==== e(  11) =    -1.31388 eV ==== 
     psi = 0.055*[#  13]+0.055*[#  14]+0.055*[#  22]+0.055*[#  23]+0.033*[#   7]
          +0.033*[#   8]+0.019*[#  11]+0.019*[#  20]+0.015*[#  15]+0.015*[#  24]
          +0.007*[#  16]+0.007*[#  17]+0.007*[#  25]+0.007*[#  26]+0.005*[#  18]
          +0.005*[#  19]+0.005*[#  27]+0.005*[#  28]
    |psi|^2 = 0.400
==== e(  12) =    -0.85355 eV ==== 
     psi = 0.233*[#  12]+0.233*[#  21]+0.169*[#  13]+0.169*[#  14]+0.169*[#  22]
          +0.169*[#  23]+0.140*[#   9]+0.140*[#  10]+0.006*[#  16]+0.006*[#  17]
          +0.006*[#  25]+0.006*[#  26]+0.004*[#   4]+0.004*[#   5]+0.002*[#  18]
          +0.002*[#  19]+0.002*[#  27]+0.002*[#  28]
    |psi|^2 = 1.461
==== e(  13) =    -0.65099 eV ==== 
     psi = 0.320*[#   6]+0.136*[#   9]+0.136*[#  10]+0.097*[#  12]+0.097*[#  21]
          +0.016*[#  18]+0.016*[#  19]+0.016*[#  27]+0.016*[#  28]+0.013*[#  16]
          +0.013*[#  17]+0.013*[#  25]+0.013*[#  26]+0.010*[#  11]+0.010*[#  20]
          +0.010*[#  13]+0.010*[#  14]+0.010*[#  22]+0.010*[#  23]+0.010*[#   2]
          +0.005*[#  15]+0.005*[#  24]+0.003*[#   1]+0.003*[#   4]+0.003*[#   5]
          
    |psi|^2 = 0.989
==== e(  14) =     2.81706 eV ==== 
     psi = 0.331*[#   6]+0.095*[#   9]+0.095*[#  10]+0.052*[#  13]+0.052*[#  14]
          +0.052*[#  22]+0.052*[#  23]+0.025*[#  16]+0.025*[#  17]+0.025*[#  25]
          +0.025*[#  26]+0.023*[#   2]+0.023*[#  15]+0.023*[#  24]+0.007*[#   1]
          +0.005*[#  11]+0.005*[#  20]+0.001*[#  18]+0.001*[#  19]+0.001*[#  27]
          +0.001*[#  28]
    |psi|^2 = 0.917
==== e(  15) =     2.85894 eV ==== 
     psi = 0.333*[#   9]+0.333*[#  10]+0.069*[#  13]+0.069*[#  14]+0.069*[#  22]
          +0.069*[#  23]+0.035*[#  12]+0.035*[#  21]+0.008*[#  18]+0.008*[#  19]
          +0.008*[#  27]+0.008*[#  28]+0.004*[#  16]+0.004*[#  17]+0.004*[#  25]
          +0.004*[#  26]
    |psi|^2 = 1.065
==== e(  16) =     3.94751 eV ==== 
     psi = 0.200*[#   7]+0.200*[#   8]+0.069*[#  11]+0.069*[#  20]+0.029*[#  16]
          +0.029*[#  17]+0.029*[#  25]+0.029*[#  26]+0.019*[#  18]+0.019*[#  19]
          +0.019*[#  27]+0.019*[#  28]+0.016*[#  13]+0.016*[#  14]+0.016*[#  22]
          +0.016*[#  23]+0.009*[#  15]+0.009*[#  24]
    |psi|^2 = 0.809
==== e(  17) =     4.75739 eV ==== 
     psi = 0.206*[#   7]+0.206*[#   8]+0.128*[#  13]+0.128*[#  14]+0.128*[#  22]
          +0.128*[#  23]+0.014*[#  16]+0.014*[#  17]+0.014*[#  25]+0.014*[#  26]
          +0.004*[#  18]+0.004*[#  19]+0.004*[#  27]+0.004*[#  28]
    |psi|^2 = 0.994
==== e(  18) =     7.25386 eV ==== 
     psi = 0.256*[#  12]+0.256*[#  21]+0.060*[#  15]+0.060*[#  24]+0.027*[#  16]
          +0.027*[#  17]+0.027*[#  25]+0.027*[#  26]+0.019*[#   2]+0.017*[#  18]
          +0.017*[#  19]+0.017*[#  27]+0.017*[#  28]+0.016*[#  11]+0.016*[#  20]
          +0.014*[#   6]+0.010*[#   9]+0.010*[#  10]+0.005*[#   1]+0.002*[#   4]
          +0.002*[#   5]
    |psi|^2 = 0.903
==== e(  19) =     7.67589 eV ==== 
     psi = 0.120*[#  15]+0.120*[#  24]+0.089*[#  16]+0.089*[#  17]+0.089*[#  25]
          +0.089*[#  26]+0.014*[#  18]+0.014*[#  19]+0.014*[#  27]+0.014*[#  28]
          +0.004*[#   7]+0.004*[#   8]+0.002*[#  12]+0.002*[#  21]+0.001*[#  11]
          +0.001*[#  20]
    |psi|^2 = 0.666
==== e(  20) =     8.22585 eV ==== 
     psi = 0.079*[#  18]+0.079*[#  19]+0.079*[#  27]+0.079*[#  28]+0.049*[#  16]
          +0.049*[#  17]+0.049*[#  25]+0.049*[#  26]+0.035*[#  11]+0.035*[#  20]
          +0.027*[#   1]+0.025*[#   2]+0.021*[#  15]+0.021*[#  24]+0.006*[#   6]
          +0.001*[#   9]+0.001*[#  10]
    |psi|^2 = 0.690
==== e(  21) =     8.57035 eV ==== 
     psi = 0.089*[#  15]+0.089*[#  24]+0.060*[#  16]+0.060*[#  17]+0.060*[#  25]
          +0.060*[#  26]+0.045*[#  12]+0.045*[#  21]+0.031*[#   9]+0.031*[#  10]
          +0.029*[#   6]+0.026*[#   2]+0.025*[#  11]+0.025*[#  20]+0.014*[#   1]
          +0.005*[#  18]+0.005*[#  19]+0.005*[#  27]+0.005*[#  28]+0.003*[#  13]
          +0.003*[#  14]+0.003*[#  22]+0.003*[#  23]+0.003*[#   4]+0.003*[#   5]
          
    |psi|^2 = 0.728
==== e(  22) =     8.75923 eV ==== 
     psi = 0.135*[#  18]+0.135*[#  19]+0.135*[#  27]+0.135*[#  28]+0.021*[#   7]
          +0.021*[#   8]+0.011*[#  11]+0.011*[#  16]+0.011*[#  17]+0.011*[#  20]
          +0.011*[#  25]+0.011*[#  26]
    |psi|^2 = 0.653
==== e(  23) =    10.22821 eV ==== 
     psi = 0.059*[#  18]+0.059*[#  19]+0.059*[#  27]+0.059*[#  28]+0.049*[#  15]
          +0.049*[#  24]+0.042*[#   6]+0.030*[#   9]+0.030*[#  10]+0.024*[#  11]
          +0.024*[#  20]+0.019*[#  16]+0.019*[#  17]+0.019*[#  25]+0.019*[#  26]
          +0.013*[#   2]+0.008*[#  12]+0.008*[#  21]+0.007*[#   3]+0.003*[#   1]
          +0.001*[#  13]+0.001*[#  14]+0.001*[#  22]+0.001*[#  23]
    |psi|^2 = 0.606
==== e(  24) =    10.49534 eV ==== 
     psi = 0.049*[#  16]+0.049*[#  17]+0.049*[#  25]+0.049*[#  26]+0.040*[#  18]
          +0.040*[#  19]+0.040*[#  27]+0.040*[#  28]+0.032*[#   7]+0.032*[#   8]
          +0.010*[#  11]+0.010*[#  20]+0.003*[#  13]+0.003*[#  14]+0.003*[#  22]
          +0.003*[#  23]
    |psi|^2 = 0.455
==== e(  25) =    11.96859 eV ==== 
     psi = 0.118*[#  15]+0.118*[#  24]+0.041*[#   6]+0.015*[#  18]+0.015*[#  19]
          +0.015*[#  27]+0.015*[#  28]+0.014*[#   2]+0.008*[#   9]+0.008*[#  10]
          +0.007*[#  16]+0.007*[#  17]+0.007*[#  25]+0.007*[#  26]+0.005*[#   1]
          +0.004*[#  11]+0.004*[#  20]+0.003*[#  12]+0.003*[#  21]
    |psi|^2 = 0.419
==== e(  26) =    12.11513 eV ==== 
     psi = 0.172*[#  15]+0.172*[#  24]+0.049*[#  16]+0.049*[#  17]+0.049*[#  25]
          +0.049*[#  26]+0.015*[#   7]+0.015*[#   8]+0.011*[#  13]+0.011*[#  14]
          +0.011*[#  22]+0.011*[#  23]+0.004*[#  11]+0.004*[#  20]
    |psi|^2 = 0.627
==== e(  27) =    13.09194 eV ==== 
     psi = 0.208*[#  16]+0.208*[#  17]+0.208*[#  25]+0.208*[#  26]+0.015*[#   9]
          +0.015*[#  10]+0.012*[#  18]+0.012*[#  19]+0.012*[#  27]+0.012*[#  28]
          +0.007*[#   4]+0.007*[#   5]+0.004*[#  12]+0.004*[#  21]+0.003*[#  13]
          +0.003*[#  14]+0.003*[#  22]+0.003*[#  23]
    |psi|^2 = 0.945
==== e(  28) =    13.35337 eV ==== 
     psi = 0.339*[#   2]+0.060*[#  15]+0.060*[#  24]+0.025*[#   1]+0.016*[#  13]
          +0.016*[#  14]+0.016*[#  22]+0.016*[#  23]+0.005*[#  18]+0.005*[#  19]
          +0.005*[#  27]+0.005*[#  28]+0.004*[#  11]+0.004*[#  20]+0.002*[#   9]
          +0.002*[#  10]+0.002*[#  16]+0.002*[#  17]+0.002*[#  25]+0.002*[#  26]
          +0.001*[#   6]
    |psi|^2 = 0.592
==== e(  29) =    14.47027 eV ==== 
     psi = 0.007*[#   2]+0.007*[#  15]+0.007*[#  24]+0.001*[#  12]+0.001*[#  21]
          
    |psi|^2 = 0.031
==== e(  30) =    14.67573 eV ==== 
     psi = 0.069*[#  15]+0.069*[#  24]+0.007*[#  18]+0.007*[#  19]+0.007*[#  27]
          +0.007*[#  28]+0.004*[#  13]+0.004*[#  14]+0.004*[#  22]+0.004*[#  23]
          
    |psi|^2 = 0.185
==== e(  31) =    14.87673 eV ==== 
     psi = 0.134*[#  16]+0.134*[#  17]+0.134*[#  25]+0.134*[#  26]+0.099*[#  18]
          +0.099*[#  19]+0.099*[#  27]+0.099*[#  28]+0.006*[#   7]+0.006*[#   8]
          +0.004*[#  12]+0.004*[#  21]+0.003*[#  13]+0.003*[#  14]+0.003*[#  22]
          +0.003*[#  23]
    |psi|^2 = 0.964
==== e(  32) =    15.04586 eV ==== 
     psi = 0.132*[#   2]+0.012*[#  15]+0.012*[#  24]+0.008*[#   1]+0.006*[#  13]
          +0.006*[#  14]+0.006*[#  22]+0.006*[#  23]+0.003*[#  11]+0.003*[#  20]
          +0.002*[#  18]+0.002*[#  19]+0.002*[#  27]+0.002*[#  28]
    |psi|^2 = 0.205
==== e(  33) =    15.54203 eV ==== 
     psi = 0.059*[#  15]+0.059*[#  24]+0.003*[#  13]+0.003*[#  14]+0.003*[#  22]
          +0.003*[#  23]+0.002*[#  18]+0.002*[#  19]+0.002*[#  27]+0.002*[#  28]
          +0.002*[#  16]+0.002*[#  17]+0.002*[#  25]+0.002*[#  26]
    |psi|^2 = 0.148
==== e(  34) =    15.94587 eV ==== 
     psi = 0.210*[#  18]+0.210*[#  19]+0.210*[#  27]+0.210*[#  28]+0.013*[#  16]
          +0.013*[#  17]+0.013*[#  25]+0.013*[#  26]+0.011*[#   9]+0.011*[#  10]
          +0.006*[#  13]+0.006*[#  14]+0.006*[#  22]+0.006*[#  23]+0.001*[#   4]
          +0.001*[#   5]
    |psi|^2 = 0.943
==== e(  35) =    16.68792 eV ==== 
     psi = 0.018*[#   2]+0.001*[#   1]+0.001*[#  15]+0.001*[#  24]
    |psi|^2 = 0.033
==== e(  36) =    16.72830 eV ==== 
     psi = 0.016*[#  15]+0.016*[#  24]+0.012*[#  12]+0.012*[#  21]+0.003*[#  13]
          +0.003*[#  14]+0.003*[#  22]+0.003*[#  23]+0.002*[#   3]
    |psi|^2 = 0.077
==== e(  37) =    18.18606 eV ==== 
     psi = 0.005*[#  15]+0.005*[#  24]
    |psi|^2 = 0.016
==== e(  38) =    18.32886 eV ==== 
     psi = 0.129*[#  18]+0.129*[#  19]+0.129*[#  27]+0.129*[#  28]+0.089*[#  16]
          +0.089*[#  17]+0.089*[#  25]+0.089*[#  26]+0.035*[#   7]+0.035*[#   8]
          +0.001*[#  13]+0.001*[#  14]+0.001*[#  22]+0.001*[#  23]
    |psi|^2 = 0.948
==== e(  39) =    18.64241 eV ==== 
     psi = 0.037*[#   2]+0.003*[#   1]+0.003*[#   6]+0.003*[#  13]+0.003*[#  14]
          +0.003*[#  22]+0.003*[#  23]+0.001*[#  11]
    |psi|^2 = 0.062
==== e(  40) =    20.27529 eV ==== 
     psi = 0.006*[#   2]+0.003*[#  12]+0.003*[#  21]+0.002*[#   6]+0.001*[#  15]
          +0.001*[#  24]
    |psi|^2 = 0.020

 k =   0.3333333333  0.5773502692  0.0000000000
==== e(   1) =   -59.84356 eV ==== 
     psi = 0.807*[#   1]+0.052*[#   2]+0.020*[#  16]+0.020*[#  17]+0.020*[#  25]
          +0.020*[#  26]+0.014*[#  18]+0.014*[#  19]+0.014*[#  27]+0.014*[#  28]
          +0.001*[#  13]+0.001*[#  14]+0.001*[#  22]+0.001*[#  23]
    |psi|^2 = 1.000
==== e(   2) =   -34.42043 eV ==== 
     psi = 0.477*[#   4]+0.477*[#   5]+0.011*[#  15]+0.011*[#  24]+0.003*[#   9]
          +0.003*[#  10]+0.003*[#  11]+0.003*[#  20]+0.001*[#  12]+0.001*[#  21]
          
    |psi|^2 = 0.989
==== e(   3) =   -34.36394 eV ==== 
     psi = 0.470*[#   4]+0.470*[#   5]+0.010*[#  16]+0.010*[#  17]+0.010*[#  25]
          +0.010*[#  26]+0.007*[#  12]+0.007*[#  21]+0.002*[#  18]+0.002*[#  19]
          +0.002*[#  27]+0.002*[#  28]+0.002*[#  13]+0.002*[#  14]+0.002*[#  22]
          +0.002*[#  23]+0.002*[#   9]+0.002*[#  10]
    |psi|^2 = 1.013
==== e(   4) =   -34.34924 eV ==== 
     psi = 0.477*[#   3]+0.006*[#  18]+0.006*[#  19]+0.006*[#  27]+0.006*[#  28]
          +0.003*[#  16]+0.003*[#  17]+0.003*[#  25]+0.003*[#  26]+0.003*[#  13]
          +0.003*[#  14]+0.003*[#  22]+0.003*[#  23]
    |psi|^2 = 0.526
==== e(   5) =   -11.54703 eV ==== 
     psi = 0.386*[#  11]+0.386*[#  20]+0.108*[#   7]+0.108*[#   8]+0.003*[#  12]
          +0.003*[#  21]+0.003*[#  15]+0.003*[#  24]
    |psi|^2 = 0.999
==== e(   6) =   -11.50837 eV ==== 
     psi = 0.387*[#  11]+0.387*[#  20]+0.050*[#   9]+0.050*[#  10]+0.040*[#  15]
          +0.040*[#  24]+0.011*[#   4]+0.011*[#   5]
    |psi|^2 = 0.979
==== e(   7) =    -5.35373 eV ==== 
     psi = 0.213*[#   7]+0.213*[#   8]+0.119*[#  13]+0.119*[#  14]+0.119*[#  22]
          +0.119*[#  23]+0.023*[#  18]+0.023*[#  19]+0.023*[#  27]+0.023*[#  28]
          +0.009*[#  12]+0.009*[#  21]+0.002*[#  16]+0.002*[#  17]+0.002*[#  25]
          +0.002*[#  26]
    |psi|^2 = 1.018
==== e(   8) =    -4.44944 eV ==== 
     psi = 0.167*[#   6]+0.139*[#  13]+0.139*[#  14]+0.139*[#  22]+0.139*[#  23]
          +0.067*[#   2]+0.045*[#  18]+0.045*[#  19]+0.045*[#  27]+0.045*[#  28]
          +0.021*[#   1]+0.011*[#   3]+0.002*[#  16]+0.002*[#  17]+0.002*[#  25]
          +0.002*[#  26]
    |psi|^2 = 1.011
==== e(   9) =    -3.88956 eV ==== 
     psi = 0.143*[#  13]+0.143*[#  14]+0.143*[#  22]+0.143*[#  23]+0.062*[#  18]
          +0.062*[#  19]+0.062*[#  27]+0.062*[#  28]+0.060*[#   9]+0.060*[#  10]
          +0.014*[#   4]+0.014*[#   5]+0.008*[#  16]+0.008*[#  17]+0.008*[#  25]
          +0.008*[#  26]
    |psi|^2 = 0.997
==== e(  10) =    -3.18059 eV ==== 
     psi = 0.143*[#  12]+0.143*[#  21]+0.120*[#   9]+0.120*[#  10]+0.061*[#  11]
          +0.061*[#  20]+0.014*[#   3]+0.007*[#   4]+0.007*[#   5]+0.005*[#  15]
          +0.005*[#  24]
    |psi|^2 = 0.687
==== e(  11) =    -2.64500 eV ==== 
     psi = 0.303*[#  12]+0.303*[#  21]+0.198*[#  13]+0.198*[#  14]+0.198*[#  22]
          +0.198*[#  23]+0.044*[#  18]+0.044*[#  19]+0.044*[#  27]+0.044*[#  28]
          +0.001*[#  16]+0.001*[#  17]+0.001*[#  25]+0.001*[#  26]
    |psi|^2 = 1.579
==== e(  12) =    -1.83916 eV ==== 
     psi = 0.119*[#   7]+0.119*[#   8]+0.050*[#  11]+0.050*[#  20]+0.008*[#  15]
          +0.008*[#  24]+0.007*[#   3]
    |psi|^2 = 0.362
==== e(  13) =     0.45127 eV ==== 
     psi = 0.368*[#   9]+0.368*[#  10]+0.054*[#  13]+0.054*[#  14]+0.054*[#  22]
          +0.054*[#  23]+0.010*[#  16]+0.010*[#  17]+0.010*[#  25]+0.010*[#  26]
          +0.001*[#   4]+0.001*[#   5]
    |psi|^2 = 0.993
==== e(  14) =     2.31156 eV ==== 
     psi = 0.771*[#   6]+0.054*[#  12]+0.054*[#  21]+0.049*[#   2]+0.036*[#  13]
          +0.036*[#  14]+0.036*[#  22]+0.036*[#  23]+0.006*[#  16]+0.006*[#  17]
          +0.006*[#  25]+0.006*[#  26]+0.001*[#   3]
    |psi|^2 = 1.096
==== e(  15) =     3.42004 eV ==== 
     psi = 0.199*[#   7]+0.199*[#   8]+0.062*[#  13]+0.062*[#  14]+0.062*[#  22]
          +0.062*[#  23]+0.055*[#  16]+0.055*[#  17]+0.055*[#  25]+0.055*[#  26]
          +0.031*[#  18]+0.031*[#  19]+0.031*[#  27]+0.031*[#  28]
    |psi|^2 = 0.991
==== e(  16) =     4.26829 eV ==== 
     psi = 0.277*[#   9]+0.277*[#  10]+0.036*[#  12]+0.036*[#  21]+0.024*[#  11]
          +0.024*[#  20]+0.012*[#  15]+0.012*[#  24]
    |psi|^2 = 0.698
==== e(  17) =     5.70143 eV ==== 
     psi = 0.269*[#   7]+0.269*[#   8]+0.161*[#  12]+0.161*[#  21]+0.060*[#  11]
          +0.060*[#  20]+0.004*[#  15]+0.004*[#  24]
    |psi|^2 = 0.988
==== e(  18) =     7.77129 eV ==== 
     psi = 0.212*[#  16]+0.212*[#  17]+0.212*[#  25]+0.212*[#  26]+0.032*[#   9]
          +0.032*[#  10]+0.013*[#   4]+0.013*[#   5]+0.004*[#  18]+0.004*[#  19]
          +0.004*[#  27]+0.004*[#  28]
    |psi|^2 = 0.959
==== e(  19) =     7.95292 eV ==== 
     psi = 0.208*[#  16]+0.208*[#  17]+0.208*[#  25]+0.208*[#  26]+0.039*[#   2]
          +0.031*[#   1]+0.017*[#   6]+0.009*[#  13]+0.009*[#  14]+0.009*[#  18]
          +0.009*[#  19]+0.009*[#  22]+0.009*[#  23]+0.009*[#  27]+0.009*[#  28]
          
    |psi|^2 = 0.986
==== e(  20) =     9.86053 eV ==== 
     psi = 0.197*[#  16]+0.197*[#  17]+0.197*[#  25]+0.197*[#  26]+0.028*[#  18]
          +0.028*[#  19]+0.028*[#  27]+0.028*[#  28]+0.013*[#   3]+0.011*[#  13]
          +0.011*[#  14]+0.011*[#  22]+0.011*[#  23]
    |psi|^2 = 0.960
==== e(  21) =    11.02406 eV ==== 
     psi = 0.367*[#  15]+0.367*[#  24]+0.033*[#   9]+0.033*[#  10]+0.019*[#  11]
          +0.019*[#  20]+0.004*[#   4]+0.004*[#   5]
    |psi|^2 = 0.847
==== e(  22) =    11.58097 eV ==== 
     psi = 0.114*[#  16]+0.114*[#  17]+0.114*[#  25]+0.114*[#  26]+0.048*[#   7]
          +0.048*[#   8]+0.019*[#  13]+0.019*[#  14]+0.019*[#  22]+0.019*[#  23]
          +0.004*[#   3]+0.003*[#  18]+0.003*[#  19]+0.003*[#  27]+0.003*[#  28]
          
    |psi|^2 = 0.648
==== e(  23) =    11.91805 eV ==== 
     psi = 0.027*[#  18]+0.027*[#  19]+0.027*[#  27]+0.027*[#  28]+0.008*[#  13]
          +0.008*[#  14]+0.008*[#  22]+0.008*[#  23]+0.005*[#   9]+0.005*[#  10]
          
    |psi|^2 = 0.150
==== e(  24) =    12.05463 eV ==== 
     psi = 0.029*[#   2]+0.019*[#  12]+0.019*[#  21]+0.008*[#  18]+0.008*[#  19]
          +0.008*[#  27]+0.008*[#  28]+0.006*[#  13]+0.006*[#  14]+0.006*[#  22]
          +0.006*[#  23]
    |psi|^2 = 0.124
==== e(  25) =    12.16069 eV ==== 
     psi = 0.180*[#  18]+0.180*[#  19]+0.180*[#  27]+0.180*[#  28]+0.040*[#  13]
          +0.040*[#  14]+0.040*[#  22]+0.040*[#  23]+0.014*[#  16]+0.014*[#  17]
          +0.014*[#  25]+0.014*[#  26]
    |psi|^2 = 0.935
==== e(  26) =    12.22103 eV ==== 
     psi = 0.228*[#  15]+0.228*[#  24]+0.040*[#  12]+0.040*[#  21]+0.001*[#  11]
          +0.001*[#  20]
    |psi|^2 = 0.540
==== e(  27) =    12.34098 eV ==== 
     psi = 0.037*[#  15]+0.037*[#  24]+0.009*[#  12]+0.009*[#  21]+0.003*[#   9]
          +0.003*[#  10]+0.002*[#  11]+0.002*[#  20]
    |psi|^2 = 0.101
==== e(  28) =    12.88630 eV ==== 
     psi = 0.087*[#  18]+0.087*[#  19]+0.087*[#  27]+0.087*[#  28]+0.024*[#  13]
          +0.024*[#  14]+0.024*[#  22]+0.024*[#  23]+0.015*[#   9]+0.015*[#  10]
          
    |psi|^2 = 0.475
==== e(  29) =    13.14970 eV ==== 
     psi = 0.034*[#  18]+0.034*[#  19]+0.034*[#  27]+0.034*[#  28]+0.009*[#  13]
          +0.009*[#  14]+0.009*[#  22]+0.009*[#  23]+0.002*[#   3]
    |psi|^2 = 0.173
==== e(  30) =    13.28125 eV ==== 
     psi = 0.108*[#  18]+0.108*[#  19]+0.108*[#  27]+0.108*[#  28]+0.073*[#   2]
          +0.046*[#  13]+0.046*[#  14]+0.046*[#  22]+0.046*[#  23]+0.009*[#   6]
          +0.009*[#  12]+0.009*[#  21]+0.004*[#   1]
    |psi|^2 = 0.719
==== e(  31) =    13.79808 eV ==== 
     psi = 0.125*[#  18]+0.125*[#  19]+0.125*[#  27]+0.125*[#  28]+0.037*[#  16]
          +0.037*[#  17]+0.037*[#  25]+0.037*[#  26]+0.028*[#  13]+0.028*[#  14]
          +0.028*[#  22]+0.028*[#  23]
    |psi|^2 = 0.760
==== e(  32) =    13.94534 eV ==== 
     psi = 0.046*[#  12]+0.046*[#  21]+0.034*[#  16]+0.034*[#  17]+0.034*[#  25]
          +0.034*[#  26]+0.018*[#   7]+0.018*[#   8]+0.006*[#  13]+0.006*[#  14]
          +0.006*[#  22]+0.006*[#  23]
    |psi|^2 = 0.290
==== e(  33) =    14.57329 eV ==== 
     psi = 0.059*[#  18]+0.059*[#  19]+0.059*[#  27]+0.059*[#  28]+0.015*[#  13]
          +0.015*[#  14]+0.015*[#  22]+0.015*[#  23]+0.013*[#   9]+0.013*[#  10]
          
    |psi|^2 = 0.324
==== e(  34) =    14.64744 eV ==== 
     psi = 0.052*[#  18]+0.052*[#  19]+0.052*[#  27]+0.052*[#  28]+0.020*[#   1]
          +0.018*[#   6]+0.015*[#  12]+0.015*[#  21]+0.009*[#   2]+0.008*[#  13]
          +0.008*[#  14]+0.008*[#  22]+0.008*[#  23]
    |psi|^2 = 0.322
==== e(  35) =    14.66198 eV ==== 
     psi = 0.164*[#  15]+0.164*[#  24]+0.001*[#  11]+0.001*[#  20]
    |psi|^2 = 0.330
==== e(  36) =    14.67014 eV ==== 
     psi = 0.008*[#  12]+0.008*[#  21]+0.007*[#  15]+0.007*[#  24]
    |psi|^2 = 0.032
==== e(  37) =    16.60872 eV ==== 
     psi = 0.007*[#  16]+0.007*[#  17]+0.007*[#  25]+0.007*[#  26]+0.005*[#  18]
          +0.005*[#  19]+0.005*[#  27]+0.005*[#  28]+0.001*[#   3]
    |psi|^2 = 0.054
==== e(  38) =    17.10831 eV ==== 
     psi = 0.008*[#  18]+0.008*[#  19]+0.008*[#  27]+0.008*[#  28]+0.003*[#  16]
          +0.003*[#  17]+0.003*[#  25]+0.003*[#  26]+0.003*[#   9]+0.003*[#  10]
          +0.002*[#  13]+0.002*[#  14]+0.002*[#  22]+0.002*[#  23]
    |psi|^2 = 0.059
==== e(  39) =    17.52425 eV ==== 
     psi = 0.019*[#  16]+0.019*[#  17]+0.019*[#  25]+0.019*[#  26]+0.011*[#   7]
          +0.011*[#   8]+0.002*[#  13]+0.002*[#  14]+0.002*[#  22]+0.002*[#  23]
          
    |psi|^2 = 0.106
==== e(  40) =    17.84067 eV ==== 
     psi = 0.072*[#  15]+0.072*[#  24]+0.004*[#   2]+0.002*[#  12]+0.002*[#  21]
          
    |psi|^2 = 0.155

 k =   0.0000000000  0.0000000000  0.0000000000
==== e(   1) =   -59.90648 eV ==== 
     psi = 0.957*[#   1]+0.025*[#   2]+0.006*[#  12]+0.006*[#  21]+0.004*[#   6]
          
    |psi|^2 = 1.000
==== e(   2) =   -34.46278 eV ==== 
     psi = 0.016*[#  15]+0.016*[#  24]+0.003*[#  11]+0.003*[#  20]
    |psi|^2 = 0.039
==== e(   3) =   -34.05439 eV ==== 
     psi = 0.953*[#   3]+0.491*[#   4]+0.491*[#   5]+0.004*[#  12]+0.004*[#  21]
          +0.003*[#  18]+0.003*[#  19]+0.003*[#  27]+0.003*[#  28]+0.002*[#  16]
          +0.002*[#  17]+0.002*[#  25]+0.002*[#  26]
    |psi|^2 = 1.961
==== e(   4) =   -34.05439 eV ==== 
     psi = 0.491*[#   4]+0.491*[#   5]+0.003*[#  18]+0.003*[#  19]+0.003*[#  27]
          +0.003*[#  28]+0.002*[#  16]+0.002*[#  17]+0.002*[#  25]+0.002*[#  26]
          
    |psi|^2 = 1.000
==== e(   5) =   -13.94081 eV ==== 
     psi = 0.448*[#   2]+0.249*[#  11]+0.249*[#  20]+0.021*[#   1]+0.011*[#  15]
          +0.011*[#  24]+0.004*[#  12]+0.004*[#  21]
    |psi|^2 = 0.999
==== e(   6) =   -12.56549 eV ==== 
     psi = 0.358*[#  11]+0.358*[#  20]+0.126*[#  15]+0.126*[#  24]
    |psi|^2 = 0.967
==== e(   7) =    -5.47482 eV ==== 
     psi = 0.324*[#   6]+0.038*[#   2]+0.030*[#  15]+0.030*[#  24]+0.027*[#  11]
          +0.027*[#  20]+0.026*[#   3]+0.020*[#   1]
    |psi|^2 = 0.523
==== e(   8) =    -2.20804 eV ==== 
     psi = 0.318*[#   9]+0.318*[#  10]+0.078*[#  13]+0.078*[#  14]+0.078*[#  22]
          +0.078*[#  23]+0.011*[#  16]+0.011*[#  17]+0.011*[#  25]+0.011*[#  26]
          +0.001*[#  18]+0.001*[#  19]+0.001*[#  27]+0.001*[#  28]
    |psi|^2 = 0.999
==== e(   9) =    -2.20804 eV ==== 
     psi = 0.318*[#   9]+0.318*[#  10]+0.078*[#  13]+0.078*[#  14]+0.078*[#  22]
          +0.078*[#  23]+0.011*[#  16]+0.011*[#  17]+0.011*[#  25]+0.011*[#  26]
          +0.001*[#  18]+0.001*[#  19]+0.001*[#  27]+0.001*[#  28]
    |psi|^2 = 0.999
==== e(  10) =    -1.56129 eV ==== 
     psi = 0.039*[#  12]+0.039*[#  21]+0.002*[#  15]+0.002*[#  24]
    |psi|^2 = 0.083
==== e(  11) =    -1.06362 eV ==== 
     psi = 0.481*[#  12]+0.481*[#  21]+0.268*[#   7]+0.268*[#   8]+0.105*[#  13]
          +0.105*[#  14]+0.105*[#  22]+0.105*[#  23]+0.010*[#   3]+0.007*[#  18]
          +0.007*[#  19]+0.007*[#  27]+0.007*[#  28]+0.003*[#  16]+0.003*[#  17]
          +0.003*[#  25]+0.003*[#  26]
    |psi|^2 = 1.970
==== e(  12) =    -1.06362 eV ==== 
     psi = 0.268*[#   7]+0.268*[#   8]+0.105*[#  13]+0.105*[#  14]+0.105*[#  22]
          +0.105*[#  23]+0.007*[#  18]+0.007*[#  19]+0.007*[#  27]+0.007*[#  28]
          +0.003*[#  16]+0.003*[#  17]+0.003*[#  25]+0.003*[#  26]
    |psi|^2 = 0.997
==== e(  13) =     0.23169 eV ==== 
     psi = 0.471*[#   6]+0.188*[#  12]+0.188*[#  21]+0.044*[#  15]+0.044*[#  24]
          +0.009*[#  11]+0.009*[#  20]+0.003*[#   2]
    |psi|^2 = 0.954
==== e(  14) =     3.35506 eV ==== 
     psi = 0.172*[#   7]+0.172*[#   8]+0.140*[#  13]+0.140*[#  14]+0.140*[#  22]
          +0.140*[#  23]+0.021*[#  18]+0.021*[#  19]+0.021*[#  27]+0.021*[#  28]
          +0.001*[#  16]+0.001*[#  17]+0.001*[#  25]+0.001*[#  26]
    |psi|^2 = 0.993
==== e(  15) =     3.35506 eV ==== 
     psi = 0.172*[#   7]+0.172*[#   8]+0.140*[#  13]+0.140*[#  14]+0.140*[#  22]
          +0.140*[#  23]+0.021*[#  18]+0.021*[#  19]+0.021*[#  27]+0.021*[#  28]
          +0.001*[#  16]+0.001*[#  17]+0.001*[#  25]+0.001*[#  26]
    |psi|^2 = 0.993
==== e(  16) =     3.64984 eV ==== 
     psi = 0.210*[#  12]+0.210*[#  21]+0.168*[#  13]+0.168*[#  14]+0.168*[#  22]
          +0.168*[#  23]+0.139*[#   9]+0.139*[#  10]+0.006*[#  16]+0.006*[#  17]
          +0.006*[#  25]+0.006*[#  26]+0.005*[#  18]+0.005*[#  19]+0.005*[#  27]
          +0.005*[#  28]
    |psi|^2 = 1.416
==== e(  17) =     3.64984 eV ==== 
     psi = 0.168*[#  13]+0.168*[#  14]+0.168*[#  22]+0.168*[#  23]+0.139*[#   9]
          +0.139*[#  10]+0.006*[#  16]+0.006*[#  17]+0.006*[#  25]+0.006*[#  26]
          +0.005*[#  18]+0.005*[#  19]+0.005*[#  27]+0.005*[#  28]
    |psi|^2 = 0.996
==== e(  18) =     5.10156 eV ==== 
     psi = 0.253*[#  12]+0.253*[#  21]+0.050*[#  15]+0.050*[#  24]+0.038*[#   6]
          +0.032*[#   2]+0.006*[#  11]+0.006*[#  20]+0.001*[#   3]
    |psi|^2 = 0.689
==== e(  19) =     5.76759 eV ==== 
     psi = 0.058*[#  15]+0.058*[#  24]+0.013*[#  11]+0.013*[#  20]
    |psi|^2 = 0.143
==== e(  20) =     6.60814 eV ==== 
     psi = 0.284*[#   2]+0.116*[#  11]+0.116*[#  20]+0.031*[#   6]+0.001*[#  15]
          +0.001*[#  24]+0.001*[#   1]
    |psi|^2 = 0.552
==== e(  21) =     7.13810 eV ==== 
     psi = 0.204*[#  15]+0.204*[#  24]+0.063*[#   6]+0.063*[#   2]+0.058*[#  11]
          +0.058*[#  20]+0.016*[#  12]+0.016*[#  21]
    |psi|^2 = 0.681
==== e(  22) =     8.65928 eV ==== 
     psi = 0.031*[#  15]+0.031*[#  24]+0.008*[#  11]+0.008*[#  20]
    |psi|^2 = 0.077
==== e(  23) =     9.55254 eV ==== 
     psi = 0.259*[#  15]+0.259*[#  24]+0.114*[#  11]+0.114*[#  20]+0.003*[#  12]
          +0.003*[#  21]
    |psi|^2 = 0.752
==== e(  24) =    10.44566 eV ==== 
     psi = 0.041*[#   2]+0.041*[#   6]+0.029*[#  15]+0.029*[#  24]+0.011*[#  11]
          +0.011*[#  20]
    |psi|^2 = 0.162
==== e(  25) =    11.26254 eV ==== 
     psi = 0.232*[#  18]+0.232*[#  19]+0.232*[#  27]+0.232*[#  28]+0.006*[#  16]
          +0.006*[#  17]+0.006*[#  25]+0.006*[#  26]+0.006*[#   4]+0.006*[#   5]
          +0.005*[#   9]+0.005*[#  10]+0.002*[#  13]+0.002*[#  14]+0.002*[#  22]
          +0.002*[#  23]
    |psi|^2 = 0.983
==== e(  26) =    11.26254 eV ==== 
     psi = 0.232*[#  18]+0.232*[#  19]+0.232*[#  27]+0.232*[#  28]+0.009*[#   3]
          +0.006*[#  16]+0.006*[#  17]+0.006*[#  25]+0.006*[#  26]+0.006*[#   4]
          +0.006*[#   5]+0.005*[#   9]+0.005*[#  10]+0.003*[#  12]+0.003*[#  21]
          +0.002*[#  13]+0.002*[#  14]+0.002*[#  22]+0.002*[#  23]
    |psi|^2 = 0.998
==== e(  27) =    13.28071 eV ==== 
     psi = 0.171*[#  18]+0.171*[#  19]+0.171*[#  27]+0.171*[#  28]+0.060*[#  16]
          +0.060*[#  17]+0.060*[#  25]+0.060*[#  26]+0.023*[#   7]+0.023*[#   8]
          +0.003*[#  13]+0.003*[#  14]+0.003*[#  22]+0.003*[#  23]
    |psi|^2 = 0.986
==== e(  28) =    13.28071 eV ==== 
     psi = 0.171*[#  18]+0.171*[#  19]+0.171*[#  27]+0.171*[#  28]+0.060*[#  16]
          +0.060*[#  17]+0.060*[#  25]+0.060*[#  26]+0.023*[#   7]+0.023*[#   8]
          +0.003*[#  13]+0.003*[#  14]+0.003*[#  22]+0.003*[#  23]+0.003*[#   3]
          
    |psi|^2 = 0.991
==== e(  29) =    13.44489 eV ==== 
     psi = 0.111*[#  15]+0.111*[#  24]+0.033*[#   2]+0.019*[#   6]+0.016*[#  12]
          +0.016*[#  21]+0.002*[#  11]+0.002*[#  20]
    |psi|^2 = 0.310
==== e(  30) =    13.52437 eV ==== 
     psi = 0.001*[#  11]+0.001*[#  15]+0.001*[#  20]+0.001*[#  24]
    |psi|^2 = 0.005
==== e(  31) =    15.44608 eV ==== 
     psi = 0.013*[#  15]+0.013*[#  24]+0.010*[#  11]+0.010*[#  20]+0.010*[#   2]
          
    |psi|^2 = 0.059
==== e(  32) =    16.68609 eV ==== 
     psi = 0.175*[#  16]+0.175*[#  17]+0.175*[#  25]+0.175*[#  26]+0.049*[#  18]
          +0.049*[#  19]+0.049*[#  27]+0.049*[#  28]+0.033*[#   7]+0.033*[#   8]
          
    |psi|^2 = 0.962
==== e(  33) =    16.68609 eV ==== 
     psi = 0.175*[#  16]+0.175*[#  17]+0.175*[#  25]+0.175*[#  26]+0.049*[#  18]
          +0.049*[#  19]+0.049*[#  27]+0.049*[#  28]+0.033*[#   7]+0.033*[#   8]
          
    |psi|^2 = 0.962
==== e(  34) =    16.69548 eV ==== 

    |psi|^2 = 0.001
==== e(  35) =    17.11353 eV ==== 
     psi = 0.222*[#  16]+0.222*[#  17]+0.222*[#  25]+0.222*[#  26]+0.037*[#   9]
          +0.037*[#  10]+0.005*[#  18]+0.005*[#  19]+0.005*[#  27]+0.005*[#  28]
          +0.003*[#  12]+0.003*[#  21]+0.002*[#   4]+0.002*[#   5]
    |psi|^2 = 0.993
==== e(  36) =    17.11353 eV ==== 
     psi = 0.222*[#  16]+0.222*[#  17]+0.222*[#  25]+0.222*[#  26]+0.037*[#   9]
          +0.037*[#  10]+0.005*[#  18]+0.005*[#  19]+0.005*[#  27]+0.005*[#  28]
          +0.002*[#   4]+0.002*[#   5]
    |psi|^2 = 0.987
==== e(  37) =    18.96084 eV ==== 
     psi = 0.003*[#  15]+0.003*[#  24]+0.003*[#   2]+0.003*[#  11]+0.003*[#  20]
          +0.002*[#  12]+0.002*[#  21]+0.002*[#   6]
    |psi|^2 = 0.021
==== e(  38) =    19.66028 eV ==== 

    |psi|^2 = 0.003
==== e(  39) =    20.55792 eV ==== 

    |psi|^2 = 0.003
==== e(  40) =    21.28255 eV ==== 
     psi = 0.006*[#   2]+0.003*[#  11]+0.003*[#  20]+0.001*[#   6]
    |psi|^2 = 0.013

 k =   0.0000000000  0.3849001795  0.0000000000
==== e(   1) =   -59.86299 eV ==== 
     psi = 0.869*[#   1]+0.019*[#  16]+0.019*[#  17]+0.019*[#  25]+0.019*[#  26]
          +0.009*[#   2]+0.007*[#  18]+0.007*[#  19]+0.007*[#  27]+0.007*[#  28]
          +0.003*[#  15]+0.003*[#  24]+0.002*[#  13]+0.002*[#  14]+0.002*[#  22]
          +0.002*[#  23]+0.001*[#   9]+0.001*[#  10]+0.001*[#  12]+0.001*[#  21]
          
    |psi|^2 = 1.000
==== e(   2) =   -34.42072 eV ==== 
     psi = 0.473*[#   4]+0.473*[#   5]+0.006*[#   2]+0.005*[#  15]+0.005*[#  24]
          +0.003*[#  18]+0.003*[#  19]+0.003*[#  27]+0.003*[#  28]+0.002*[#  16]
          +0.002*[#  17]+0.002*[#  25]+0.002*[#  26]+0.001*[#  11]+0.001*[#  20]
          
    |psi|^2 = 0.991
==== e(   3) =   -34.38741 eV ==== 
     psi = 0.005*[#  12]+0.005*[#  21]+0.003*[#  18]+0.003*[#  19]+0.003*[#  27]
          +0.003*[#  28]+0.003*[#  13]+0.003*[#  14]+0.003*[#  22]+0.003*[#  23]
          +0.002*[#  15]+0.002*[#  24]+0.002*[#  11]+0.002*[#  20]+0.001*[#  16]
          +0.001*[#  17]+0.001*[#  25]+0.001*[#  26]
    |psi|^2 = 0.047
==== e(   4) =   -34.13786 eV ==== 
     psi = 0.487*[#   4]+0.487*[#   5]+0.004*[#  16]+0.004*[#  17]+0.004*[#  25]
          +0.004*[#  26]+0.001*[#  13]+0.001*[#  14]+0.001*[#  22]+0.001*[#  23]
          
    |psi|^2 = 1.000
==== e(   5) =   -12.47215 eV ==== 
     psi = 0.314*[#  11]+0.314*[#  20]+0.141*[#   2]+0.025*[#  18]+0.025*[#  19]
          +0.025*[#  27]+0.025*[#  28]+0.023*[#   9]+0.023*[#  10]+0.008*[#   1]
          +0.008*[#   4]+0.008*[#   5]+0.008*[#  15]+0.008*[#  24]+0.006*[#  12]
          +0.006*[#  21]+0.005*[#  13]+0.005*[#  14]+0.005*[#  22]+0.005*[#  23]
          +0.004*[#   6]+0.002*[#  16]+0.002*[#  17]+0.002*[#  25]+0.002*[#  26]
          
    |psi|^2 = 0.999
==== e(   6) =   -11.97981 eV ==== 
     psi = 0.362*[#  11]+0.362*[#  20]+0.078*[#   7]+0.078*[#   8]+0.017*[#  18]
          +0.017*[#  19]+0.017*[#  27]+0.017*[#  28]+0.007*[#  15]+0.007*[#  24]
          +0.003*[#  13]+0.003*[#  14]+0.003*[#  22]+0.003*[#  23]+0.003*[#  16]
          +0.003*[#  17]+0.003*[#  25]+0.003*[#  26]
    |psi|^2 = 0.987
==== e(   7) =    -5.09623 eV ==== 
     psi = 0.145*[#   9]+0.145*[#  10]+0.095*[#  13]+0.095*[#  14]+0.095*[#  22]
          +0.095*[#  23]+0.070*[#   6]+0.036*[#   2]+0.019*[#  15]+0.019*[#  24]
          +0.010*[#  11]+0.010*[#  20]+0.009*[#   3]+0.005*[#   1]+0.002*[#  16]
          +0.002*[#  17]+0.002*[#  18]+0.002*[#  19]+0.002*[#  25]+0.002*[#  26]
          +0.002*[#  27]+0.002*[#  28]+0.002*[#   4]+0.002*[#   5]+0.001*[#  12]
          +0.001*[#  21]
    |psi|^2 = 0.868
==== e(   8) =    -4.03983 eV ==== 
     psi = 0.146*[#  13]+0.146*[#  14]+0.146*[#  22]+0.146*[#  23]+0.110*[#   7]
          +0.110*[#   8]+0.017*[#  11]+0.017*[#  20]+0.009*[#  15]+0.009*[#  24]
          +0.004*[#  16]+0.004*[#  17]+0.004*[#  25]+0.004*[#  26]+0.002*[#  18]
          +0.002*[#  19]+0.002*[#  27]+0.002*[#  28]
    |psi|^2 = 0.880
==== e(   9) =    -3.57817 eV ==== 
     psi = 0.181*[#  12]+0.181*[#  21]+0.130*[#   6]+0.060*[#   2]+0.051*[#  13]
          +0.051*[#  14]+0.051*[#  22]+0.051*[#  23]+0.041*[#  11]+0.041*[#  20]
          +0.019*[#  16]+0.019*[#  17]+0.019*[#  25]+0.019*[#  26]+0.011*[#   9]
          +0.011*[#  10]+0.009*[#   1]+0.007*[#  18]+0.007*[#  19]+0.007*[#  27]
          +0.007*[#  28]+0.006*[#   4]+0.006*[#   5]+0.006*[#  15]+0.006*[#  24]
          
    |psi|^2 = 0.997
==== e(  10) =    -2.52216 eV ==== 
     psi = 0.250*[#   7]+0.250*[#   8]+0.117*[#  13]+0.117*[#  14]+0.117*[#  22]
          +0.117*[#  23]+0.005*[#  18]+0.005*[#  19]+0.005*[#  27]+0.005*[#  28]
          +0.004*[#  16]+0.004*[#  17]+0.004*[#  25]+0.004*[#  26]
    |psi|^2 = 0.999
==== e(  11) =    -1.31388 eV ==== 
     psi = 0.055*[#  13]+0.055*[#  14]+0.055*[#  22]+0.055*[#  23]+0.033*[#   7]
          +0.033*[#   8]+0.019*[#  11]+0.019*[#  20]+0.015*[#  15]+0.015*[#  24]
          +0.007*[#  16]+0.007*[#  17]+0.007*[#  25]+0.007*[#  26]+0.005*[#  18]
          +0.005*[#  19]+0.005*[#  27]+0.005*[#  28]
    |psi|^2 = 0.400
==== e(  12) =    -0.85355 eV ==== 
     psi = 0.233*[#  12]+0.233*[#  21]+0.169*[#  13]+0.169*[#  14]+0.169*[#  22]
          +0.169*[#  23]+0.140*[#   9]+0.140*[#  10]+0.006*[#  16]+0.006*[#  17]
          +0.006*[#  25]+0.006*[#  26]+0.004*[#   4]+0.004*[#   5]+0.002*[#  18]
          +0.002*[#  19]+0.002*[#  27]+0.002*[#  28]
    |psi|^2 = 1.461
==== e(  13) =    -0.65099 eV ==== 
     psi = 0.320*[#   6]+0.136*[#   9]+0.136*[#  10]+0.097*[#  12]+0.097*[#  21]
          +0.016*[#  18]+0.016*[#  19]+0.016*[#  27]+0.016*[#  28]+0.013*[#  16]
          +0.013*[#  17]+0.013*[#  25]+0.013*[#  26]+0.010*[#  11]+0.010*[#  20]
          +0.010*[#  13]+0.010*[#  14]+0.010*[#  22]+0.010*[#  23]+0.010*[#   2]
          +0.005*[#  15]+0.005*[#  24]+0.003*[#   1]+0.003*[#   4]+0.003*[#   5]
          
    |psi|^2 = 0.989
==== e(  14) =     2.81706 eV ==== 
     psi = 0.331*[#   6]+0.095*[#   9]+0.095*[#  10]+0.052*[#  13]+0.052*[#  14]
          +0.052*[#  22]+0.052*[#  23]+0.025*[#  16]+0.025*[#  17]+0.025*[#  25]
          +0.025*[#  26]+0.023*[#   2]+0.023*[#  15]+0.023*[#  24]+0.007*[#   1]
          +0.005*[#  11]+0.005*[#  20]+0.001*[#  18]+0.001*[#  19]+0.001*[#  27]
          +0.001*[#  28]
    |psi|^2 = 0.917
==== e(  15) =     2.85894 eV ==== 
     psi = 0.333*[#   9]+0.333*[#  10]+0.069*[#  13]+0.069*[#  14]+0.069*[#  22]
          +0.069*[#  23]+0.035*[#  12]+0.035*[#  21]+0.008*[#  18]+0.008*[#  19]
          +0.008*[#  27]+0.008*[#  28]+0.004*[#  16]+0.004*[#  17]+0.004*[#  25]
          +0.004*[#  26]
    |psi|^2 = 1.065
==== e(  16) =     3.94751 eV ==== 
     psi = 0.200*[#   7]+0.200*[#   8]+0.069*[#  11]+0.069*[#  20]+0.029*[#  16]
          +0.029*[#  17]+0.029*[#  25]+0.029*[#  26]+0.019*[#  18]+0.019*[#  19]
          +0.019*[#  27]+0.019*[#  28]+0.016*[#  13]+0.016*[#  14]+0.016*[#  22]
          +0.016*[#  23]+0.009*[#  15]+0.009*[#  24]
    |psi|^2 = 0.809
==== e(  17) =     4.75739 eV ==== 
     psi = 0.206*[#   7]+0.206*[#   8]+0.128*[#  13]+0.128*[#  14]+0.128*[#  22]
          +0.128*[#  23]+0.014*[#  16]+0.014*[#  17]+0.014*[#  25]+0.014*[#  26]
          +0.004*[#  18]+0.004*[#  19]+0.004*[#  27]+0.004*[#  28]
    |psi|^2 = 0.994
==== e(  18) =     7.25386 eV ==== 
     psi = 0.256*[#  12]+0.256*[#  21]+0.060*[#  15]+0.060*[#  24]+0.027*[#  16]
          +0.027*[#  17]+0.027*[#  25]+0.027*[#  26]+0.019*[#   2]+0.017*[#  18]
          +0.017*[#  19]+0.017*[#  27]+0.017*[#  28]+0.016*[#  11]+0.016*[#  20]
          +0.014*[#   6]+0.010*[#   9]+0.010*[#  10]+0.005*[#   1]+0.002*[#   4]
          +0.002*[#   5]
    |psi|^2 = 0.903
==== e(  19) =     7.67589 eV ==== 
     psi = 0.120*[#  15]+0.120*[#  24]+0.089*[#  16]+0.089*[#  17]+0.089*[#  25]
          +0.089*[#  26]+0.014*[#  18]+0.014*[#  19]+0.014*[#  27]+0.014*[#  28]
          +0.004*[#   7]+0.004*[#   8]+0.002*[#  12]+0.002*[#  21]+0.001*[#  11]
          +0.001*[#  20]
    |psi|^2 = 0.666
==== e(  20) =     8.22585 eV ==== 
     psi = 0.079*[#  18]+0.079*[#  19]+0.079*[#  27]+0.079*[#  28]+0.049*[#  16]
          +0.049*[#  17]+0.049*[#  25]+0.049*[#  26]+0.035*[#  11]+0.035*[#  20]
          +0.027*[#   1]+0.025*[#   2]+0.021*[#  15]+0.021*[#  24]+0.006*[#   6]
          +0.001*[#   9]+0.001*[#  10]
    |psi|^2 = 0.690
==== e(  21) =     8.57035 eV ==== 
     psi = 0.089*[#  15]+0.089*[#  24]+0.060*[#  16]+0.060*[#  17]+0.060*[#  25]
          +0.060*[#  26]+0.045*[#  12]+0.045*[#  21]+0.031*[#   9]+0.031*[#  10]
          +0.029*[#   6]+0.026*[#   2]+0.025*[#  11]+0.025*[#  20]+0.014*[#   1]
          +0.005*[#  18]+0.005*[#  19]+0.005*[#  27]+0.005*[#  28]+0.003*[#  13]
          +0.003*[#  14]+0.003*[#  22]+0.003*[#  23]+0.003*[#   4]+0.003*[#   5]
          
    |psi|^2 = 0.728
==== e(  22) =     8.75923 eV ==== 
     psi = 0.135*[#  18]+0.135*[#  19]+0.135*[#  27]+0.135*[#  28]+0.021*[#   7]
          +0.021*[#   8]+0.011*[#  11]+0.011*[#  16]+0.011*[#  17]+0.011*[#  20]
          +0.011*[#  25]+0.011*[#  26]
    |psi|^2 = 0.653
==== e(  23) =    10.22821 eV ==== 
     psi = 0.059*[#  18]+0.059*[#  19]+0.059*[#  27]+0.059*[#  28]+0.049*[#  15]
          +0.049*[#  24]+0.042*[#   6]+0.030*[#   9]+0.030*[#  10]+0.024*[#  11]
          +0.024*[#  20]+0.019*[#  16]+0.019*[#  17]+0.019*[#  25]+0.019*[#  26]
          +0.013*[#   2]+0.008*[#  12]+0.008*[#  21]+0.007*[#   3]+0.003*[#   1]
          +0.001*[#  13]+0.001*[#  14]+0.001*[#  22]+0.001*[#  23]
    |psi|^2 = 0.606
==== e(  24) =    10.49534 eV ==== 
     psi = 0.049*[#  16]+0.049*[#  17]+0.049*[#  25]+0.049*[#  26]+0.040*[#  18]
          +0.040*[#  19]+0.040*[#  27]+0.040*[#  28]+0.032*[#   7]+0.032*[#   8]
          +0.010*[#  11]+0.010*[#  20]+0.003*[#  13]+0.003*[#  14]+0.003*[#  22]
          +0.003*[#  23]
    |psi|^2 = 0.455
==== e(  25) =    11.96859 eV ==== 
     psi = 0.118*[#  15]+0.118*[#  24]+0.041*[#   6]+0.015*[#  18]+0.015*[#  19]
          +0.015*[#  27]+0.015*[#  28]+0.014*[#   2]+0.008*[#   9]+0.008*[#  10]
          +0.007*[#  16]+0.007*[#  17]+0.007*[#  25]+0.007*[#  26]+0.005*[#   1]
          +0.004*[#  11]+0.004*[#  20]+0.003*[#  12]+0.003*[#  21]
    |psi|^2 = 0.419
==== e(  26) =    12.11513 eV ==== 
     psi = 0.172*[#  15]+0.172*[#  24]+0.049*[#  16]+0.049*[#  17]+0.049*[#  25]
          +0.049*[#  26]+0.015*[#   7]+0.015*[#   8]+0.011*[#  13]+0.011*[#  14]
          +0.011*[#  22]+0.011*[#  23]+0.004*[#  11]+0.004*[#  20]
    |psi|^2 = 0.627
==== e(  27) =    13.09194 eV ==== 
     psi = 0.208*[#  16]+0.208*[#  17]+0.208*[#  25]+0.208*[#  26]+0.015*[#   9]
          +0.015*[#  10]+0.012*[#  18]+0.012*[#  19]+0.012*[#  27]+0.012*[#  28]
          +0.007*[#   4]+0.007*[#   5]+0.004*[#  12]+0.004*[#  21]+0.003*[#  13]
          +0.003*[#  14]+0.003*[#  22]+0.003*[#  23]
    |psi|^2 = 0.945
==== e(  28) =    13.35337 eV ==== 
     psi = 0.339*[#   2]+0.060*[#  15]+0.060*[#  24]+0.025*[#   1]+0.016*[#  13]
          +0.016*[#  14]+0.016*[#  22]+0.016*[#  23]+0.005*[#  18]+0.005*[#  19]
          +0.005*[#  27]+0.005*[#  28]+0.004*[#  11]+0.004*[#  20]+0.002*[#   9]
          +0.002*[#  10]+0.002*[#  16]+0.002*[#  17]+0.002*[#  25]+0.002*[#  26]
          +0.001*[#   6]
    |psi|^2 = 0.592
==== e(  29) =    14.47027 eV ==== 
     psi = 0.007*[#   2]+0.007*[#  15]+0.007*[#  24]+0.001*[#  12]+0.001*[#  21]
          
    |psi|^2 = 0.031
==== e(  30) =    14.67573 eV ==== 
     psi = 0.069*[#  15]+0.069*[#  24]+0.007*[#  18]+0.007*[#  19]+0.007*[#  27]
          +0.007*[#  28]+0.004*[#  13]+0.004*[#  14]+0.004*[#  22]+0.004*[#  23]
          
    |psi|^2 = 0.185
==== e(  31) =    14.87673 eV ==== 
     psi = 0.134*[#  16]+0.134*[#  17]+0.134*[#  25]+0.134*[#  26]+0.099*[#  18]
          +0.099*[#  19]+0.099*[#  27]+0.099*[#  28]+0.006*[#   7]+0.006*[#   8]
          +0.004*[#  12]+0.004*[#  21]+0.003*[#  13]+0.003*[#  14]+0.003*[#  22]
          +0.003*[#  23]
    |psi|^2 = 0.964
==== e(  32) =    15.04586 eV ==== 
     psi = 0.132*[#   2]+0.012*[#  15]+0.012*[#  24]+0.008*[#   1]+0.006*[#  13]
          +0.006*[#  14]+0.006*[#  22]+0.006*[#  23]+0.003*[#  11]+0.003*[#  20]
          +0.002*[#  18]+0.002*[#  19]+0.002*[#  27]+0.002*[#  28]
    |psi|^2 = 0.205
==== e(  33) =    15.54203 eV ==== 
     psi = 0.059*[#  15]+0.059*[#  24]+0.003*[#  13]+0.003*[#  14]+0.003*[#  22]
          +0.003*[#  23]+0.002*[#  18]+0.002*[#  19]+0.002*[#  27]+0.002*[#  28]
          +0.002*[#  16]+0.002*[#  17]+0.002*[#  25]+0.002*[#  26]
    |psi|^2 = 0.148
==== e(  34) =    15.94587 eV ==== 
     psi = 0.210*[#  18]+0.210*[#  19]+0.210*[#  27]+0.210*[#  28]+0.013*[#  16]
          +0.013*[#  17]+0.013*[#  25]+0.013*[#  26]+0.011*[#   9]+0.011*[#  10]
          +0.006*[#  13]+0.006*[#  14]+0.006*[#  22]+0.006*[#  23]+0.001*[#   4]
          +0.001*[#   5]
    |psi|^2 = 0.943
==== e(  35) =    16.68792 eV ==== 
     psi = 0.018*[#   2]+0.001*[#   1]+0.001*[#  15]+0.001*[#  24]
    |psi|^2 = 0.033
==== e(  36) =    16.72830 eV ==== 
     psi = 0.016*[#  15]+0.016*[#  24]+0.012*[#  12]+0.012*[#  21]+0.003*[#  13]
          +0.003*[#  14]+0.003*[#  22]+0.003*[#  23]+0.002*[#   3]
    |psi|^2 = 0.077
==== e(  37) =    18.18606 eV ==== 
     psi = 0.005*[#  15]+0.005*[#  24]
    |psi|^2 = 0.016
==== e(  38) =    18.32886 eV ==== 
     psi = 0.129*[#  18]+0.129*[#  19]+0.129*[#  27]+0.129*[#  28]+0.089*[#  16]
          +0.089*[#  17]+0.089*[#  25]+0.089*[#  26]+0.035*[#   7]+0.035*[#   8]
          +0.001*[#  13]+0.001*[#  14]+0.001*[#  22]+0.001*[#  23]
    |psi|^2 = 0.948
==== e(  39) =    18.64241 eV ==== 
     psi = 0.037*[#   2]+0.003*[#   1]+0.003*[#   6]+0.003*[#  13]+0.003*[#  14]
          +0.003*[#  22]+0.003*[#  23]+0.001*[#  11]
    |psi|^2 = 0.062
==== e(  40) =    20.27484 eV ==== 
     psi = 0.006*[#   2]+0.003*[#  12]+0.003*[#  21]+0.002*[#   6]+0.001*[#  15]
          +0.001*[#  24]
    |psi|^2 = 0.020

 k =   0.3333333333  0.5773502692  0.0000000000
==== e(   1) =   -59.84356 eV ==== 
     psi = 0.807*[#   1]+0.052*[#   2]+0.020*[#  16]+0.020*[#  17]+0.020*[#  25]
          +0.020*[#  26]+0.014*[#  18]+0.014*[#  19]+0.014*[#  27]+0.014*[#  28]
          +0.001*[#  13]+0.001*[#  14]+0.001*[#  22]+0.001*[#  23]
    |psi|^2 = 1.000
==== e(   2) =   -34.42043 eV ==== 
     psi = 0.477*[#   4]+0.477*[#   5]+0.011*[#  15]+0.011*[#  24]+0.003*[#   9]
          +0.003*[#  10]+0.003*[#  11]+0.003*[#  20]+0.001*[#  12]+0.001*[#  21]
          
    |psi|^2 = 0.989
==== e(   3) =   -34.36394 eV ==== 
     psi = 0.470*[#   4]+0.470*[#   5]+0.010*[#  16]+0.010*[#  17]+0.010*[#  25]
          +0.010*[#  26]+0.007*[#  12]+0.007*[#  21]+0.002*[#  18]+0.002*[#  19]
          +0.002*[#  27]+0.002*[#  28]+0.002*[#  13]+0.002*[#  14]+0.002*[#  22]
          +0.002*[#  23]+0.002*[#   9]+0.002*[#  10]
    |psi|^2 = 1.013
==== e(   4) =   -34.34924 eV ==== 
     psi = 0.477*[#   3]+0.006*[#  18]+0.006*[#  19]+0.006*[#  27]+0.006*[#  28]
          +0.003*[#  16]+0.003*[#  17]+0.003*[#  25]+0.003*[#  26]+0.003*[#  13]
          +0.003*[#  14]+0.003*[#  22]+0.003*[#  23]
    |psi|^2 = 0.526
==== e(   5) =   -11.54703 eV ==== 
     psi = 0.386*[#  11]+0.386*[#  20]+0.108*[#   7]+0.108*[#   8]+0.003*[#  12]
          +0.003*[#  21]+0.003*[#  15]+0.003*[#  24]
    |psi|^2 = 0.999
==== e(   6) =   -11.50837 eV ==== 
     psi = 0.387*[#  11]+0.387*[#  20]+0.050*[#   9]+0.050*[#  10]+0.040*[#  15]
          +0.040*[#  24]+0.011*[#   4]+0.011*[#   5]
    |psi|^2 = 0.979
==== e(   7) =    -5.35373 eV ==== 
     psi = 0.213*[#   7]+0.213*[#   8]+0.119*[#  13]+0.119*[#  14]+0.119*[#  22]
          +0.119*[#  23]+0.023*[#  18]+0.023*[#  19]+0.023*[#  27]+0.023*[#  28]
          +0.009*[#  12]+0.009*[#  21]+0.002*[#  16]+0.002*[#  17]+0.002*[#  25]
          +0.002*[#  26]
    |psi|^2 = 1.018
==== e(   8) =    -4.44944 eV ==== 
     psi = 0.167*[#   6]+0.139*[#  13]+0.139*[#  14]+0.139*[#  22]+0.139*[#  23]
          +0.067*[#   2]+0.045*[#  18]+0.045*[#  19]+0.045*[#  27]+0.045*[#  28]
          +0.021*[#   1]+0.011*[#   3]+0.002*[#  16]+0.002*[#  17]+0.002*[#  25]
          +0.002*[#  26]
    |psi|^2 = 1.011
==== e(   9) =    -3.88956 eV ==== 
     psi = 0.143*[#  13]+0.143*[#  14]+0.143*[#  22]+0.143*[#  23]+0.062*[#  18]
          +0.062*[#  19]+0.062*[#  27]+0.062*[#  28]+0.060*[#   9]+0.060*[#  10]
          +0.014*[#   4]+0.014*[#   5]+0.008*[#  16]+0.008*[#  17]+0.008*[#  25]
          +0.008*[#  26]
    |psi|^2 = 0.997
==== e(  10) =    -3.18059 eV ==== 
     psi = 0.143*[#  12]+0.143*[#  21]+0.120*[#   9]+0.120*[#  10]+0.061*[#  11]
          +0.061*[#  20]+0.014*[#   3]+0.007*[#   4]+0.007*[#   5]+0.005*[#  15]
          +0.005*[#  24]
    |psi|^2 = 0.687
==== e(  11) =    -2.64500 eV ==== 
     psi = 0.303*[#  12]+0.303*[#  21]+0.198*[#  13]+0.198*[#  14]+0.198*[#  22]
          +0.198*[#  23]+0.044*[#  18]+0.044*[#  19]+0.044*[#  27]+0.044*[#  28]
          +0.001*[#  16]+0.001*[#  17]+0.001*[#  25]+0.001*[#  26]
    |psi|^2 = 1.579
==== e(  12) =    -1.83916 eV ==== 
     psi = 0.119*[#   7]+0.119*[#   8]+0.050*[#  11]+0.050*[#  20]+0.008*[#  15]
          +0.008*[#  24]+0.007*[#   3]
    |psi|^2 = 0.362
==== e(  13) =     0.45127 eV ==== 
     psi = 0.368*[#   9]+0.368*[#  10]+0.054*[#  13]+0.054*[#  14]+0.054*[#  22]
          +0.054*[#  23]+0.010*[#  16]+0.010*[#  17]+0.010*[#  25]+0.010*[#  26]
          +0.001*[#   4]+0.001*[#   5]
    |psi|^2 = 0.993
==== e(  14) =     2.31156 eV ==== 
     psi = 0.771*[#   6]+0.054*[#  12]+0.054*[#  21]+0.049*[#   2]+0.036*[#  13]
          +0.036*[#  14]+0.036*[#  22]+0.036*[#  23]+0.006*[#  16]+0.006*[#  17]
          +0.006*[#  25]+0.006*[#  26]+0.001*[#   3]
    |psi|^2 = 1.096
==== e(  15) =     3.42004 eV ==== 
     psi = 0.199*[#   7]+0.199*[#   8]+0.062*[#  13]+0.062*[#  14]+0.062*[#  22]
          +0.062*[#  23]+0.055*[#  16]+0.055*[#  17]+0.055*[#  25]+0.055*[#  26]
          +0.031*[#  18]+0.031*[#  19]+0.031*[#  27]+0.031*[#  28]
    |psi|^2 = 0.991
==== e(  16) =     4.26829 eV ==== 
     psi = 0.277*[#   9]+0.277*[#  10]+0.036*[#  12]+0.036*[#  21]+0.024*[#  11]
          +0.024*[#  20]+0.012*[#  15]+0.012*[#  24]
    |psi|^2 = 0.698
==== e(  17) =     5.70143 eV ==== 
     psi = 0.269*[#   7]+0.269*[#   8]+0.161*[#  12]+0.161*[#  21]+0.060*[#  11]
          +0.060*[#  20]+0.004*[#  15]+0.004*[#  24]
    |psi|^2 = 0.988
==== e(  18) =     7.77129 eV ==== 
     psi = 0.212*[#  16]+0.212*[#  17]+0.212*[#  25]+0.212*[#  26]+0.032*[#   9]
          +0.032*[#  10]+0.013*[#   4]+0.013*[#   5]+0.004*[#  18]+0.004*[#  19]
          +0.004*[#  27]+0.004*[#  28]
    |psi|^2 = 0.959
==== e(  19) =     7.95292 eV ==== 
     psi = 0.208*[#  16]+0.208*[#  17]+0.208*[#  25]+0.208*[#  26]+0.039*[#   2]
          +0.031*[#   1]+0.017*[#   6]+0.009*[#  13]+0.009*[#  14]+0.009*[#  18]
          +0.009*[#  19]+0.009*[#  22]+0.009*[#  23]+0.009*[#  27]+0.009*[#  28]
          
    |psi|^2 = 0.986
==== e(  20) =     9.86053 eV ==== 
     psi = 0.197*[#  16]+0.197*[#  17]+0.197*[#  25]+0.197*[#  26]+0.028*[#  18]
          +0.028*[#  19]+0.028*[#  27]+0.028*[#  28]+0.013*[#   3]+0.011*[#  13]
          +0.011*[#  14]+0.011*[#  22]+0.011*[#  23]
    |psi|^2 = 0.960
==== e(  21) =    11.02406 eV ==== 
     psi = 0.367*[#  15]+0.367*[#  24]+0.033*[#   9]+0.033*[#  10]+0.019*[#  11]
          +0.019*[#  20]+0.004*[#   4]+0.004*[#   5]
    |psi|^2 = 0.847
==== e(  22) =    11.58097 eV ==== 
     psi = 0.114*[#  16]+0.114*[#  17]+0.114*[#  25]+0.114*[#  26]+0.048*[#   7]
          +0.048*[#   8]+0.019*[#  13]+0.019*[#  14]+0.019*[#  22]+0.019*[#  23]
          +0.004*[#   3]+0.003*[#  18]+0.003*[#  19]+0.003*[#  27]+0.003*[#  28]
          
    |psi|^2 = 0.648
==== e(  23) =    11.91805 eV ==== 
     psi = 0.027*[#  18]+0.027*[#  19]+0.027*[#  27]+0.027*[#  28]+0.008*[#  13]
          +0.008*[#  14]+0.008*[#  22]+0.008*[#  23]+0.005*[#   9]+0.005*[#  10]
          
    |psi|^2 = 0.150
==== e(  24) =    12.05463 eV ==== 
     psi = 0.029*[#   2]+0.019*[#  12]+0.019*[#  21]+0.008*[#  18]+0.008*[#  19]
          +0.008*[#  27]+0.008*[#  28]+0.006*[#  13]+0.006*[#  14]+0.006*[#  22]
          +0.006*[#  23]
    |psi|^2 = 0.124
==== e(  25) =    12.16069 eV ==== 
     psi = 0.180*[#  18]+0.180*[#  19]+0.180*[#  27]+0.180*[#  28]+0.040*[#  13]
          +0.040*[#  14]+0.040*[#  22]+0.040*[#  23]+0.014*[#  16]+0.014*[#  17]
          +0.014*[#  25]+0.014*[#  26]
    |psi|^2 = 0.935
==== e(  26) =    12.22103 eV ==== 
     psi = 0.228*[#  15]+0.228*[#  24]+0.040*[#  12]+0.040*[#  21]+0.001*[#  11]
          +0.001*[#  20]
    |psi|^2 = 0.540
==== e(  27) =    12.34098 eV ==== 
     psi = 0.037*[#  15]+0.037*[#  24]+0.009*[#  12]+0.009*[#  21]+0.003*[#   9]
          +0.003*[#  10]+0.002*[#  11]+0.002*[#  20]
    |psi|^2 = 0.101
==== e(  28) =    12.88630 eV ==== 
     psi = 0.087*[#  18]+0.087*[#  19]+0.087*[#  27]+0.087*[#  28]+0.024*[#  13]
          +0.024*[#  14]+0.024*[#  22]+0.024*[#  23]+0.015*[#   9]+0.015*[#  10]
          
    |psi|^2 = 0.475
==== e(  29) =    13.14970 eV ==== 
     psi = 0.034*[#  18]+0.034*[#  19]+0.034*[#  27]+0.034*[#  28]+0.009*[#  13]
          +0.009*[#  14]+0.009*[#  22]+0.009*[#  23]+0.002*[#   3]
    |psi|^2 = 0.173
==== e(  30) =    13.28125 eV ==== 
     psi = 0.108*[#  18]+0.108*[#  19]+0.108*[#  27]+0.108*[#  28]+0.073*[#   2]
          +0.046*[#  13]+0.046*[#  14]+0.046*[#  22]+0.046*[#  23]+0.009*[#   6]
          +0.009*[#  12]+0.009*[#  21]+0.004*[#   1]
    |psi|^2 = 0.719
==== e(  31) =    13.79808 eV ==== 
     psi = 0.125*[#  18]+0.125*[#  19]+0.125*[#  27]+0.125*[#  28]+0.037*[#  16]
          +0.037*[#  17]+0.037*[#  25]+0.037*[#  26]+0.028*[#  13]+0.028*[#  14]
          +0.028*[#  22]+0.028*[#  23]
    |psi|^2 = 0.760
==== e(  32) =    13.94534 eV ==== 
     psi = 0.046*[#  12]+0.046*[#  21]+0.034*[#  16]+0.034*[#  17]+0.034*[#  25]
          +0.034*[#  26]+0.018*[#   7]+0.018*[#   8]+0.006*[#  13]+0.006*[#  14]
          +0.006*[#  22]+0.006*[#  23]
    |psi|^2 = 0.290
==== e(  33) =    14.57329 eV ==== 
     psi = 0.059*[#  18]+0.059*[#  19]+0.059*[#  27]+0.059*[#  28]+0.015*[#  13]
          +0.015*[#  14]+0.015*[#  22]+0.015*[#  23]+0.013*[#   9]+0.013*[#  10]
          
    |psi|^2 = 0.324
==== e(  34) =    14.64744 eV ==== 
     psi = 0.052*[#  18]+0.052*[#  19]+0.052*[#  27]+0.052*[#  28]+0.020*[#   1]
          +0.018*[#   6]+0.015*[#  12]+0.015*[#  21]+0.009*[#   2]+0.008*[#  13]
          +0.008*[#  14]+0.008*[#  22]+0.008*[#  23]
    |psi|^2 = 0.322
==== e(  35) =    14.66198 eV ==== 
     psi = 0.164*[#  15]+0.164*[#  24]+0.001*[#  11]+0.001*[#  20]
    |psi|^2 = 0.330
==== e(  36) =    14.67014 eV ==== 
     psi = 0.008*[#  12]+0.008*[#  21]+0.007*[#  15]+0.007*[#  24]
    |psi|^2 = 0.032
==== e(  37) =    16.60872 eV ==== 
     psi = 0.007*[#  16]+0.007*[#  17]+0.007*[#  25]+0.007*[#  26]+0.005*[#  18]
          +0.005*[#  19]+0.005*[#  27]+0.005*[#  28]+0.001*[#   3]
    |psi|^2 = 0.054
==== e(  38) =    17.10831 eV ==== 
     psi = 0.008*[#  18]+0.008*[#  19]+0.008*[#  27]+0.008*[#  28]+0.003*[#  16]
          +0.003*[#  17]+0.003*[#  25]+0.003*[#  26]+0.003*[#   9]+0.003*[#  10]
          +0.002*[#  13]+0.002*[#  14]+0.002*[#  22]+0.002*[#  23]
    |psi|^2 = 0.059
==== e(  39) =    17.52426 eV ==== 
     psi = 0.019*[#  16]+0.019*[#  17]+0.019*[#  25]+0.019*[#  26]+0.011*[#   7]
          +0.011*[#   8]+0.002*[#  13]+0.002*[#  14]+0.002*[#  22]+0.002*[#  23]
          
    |psi|^2 = 0.106
==== e(  40) =    17.83912 eV ==== 
     psi = 0.075*[#  15]+0.075*[#  24]+0.002*[#  12]+0.002*[#  21]+0.001*[#   2]
          
    |psi|^2 = 0.157

Lowdin Charges: 

     Atom #   1: total charge =  11.5621, s =  2.2979, p =  4.3881, d =  4.8761, 
                 spin up      =   5.7811, s =  1.1490, 
                 spin up      =   5.7811, p =  2.1940, pz=  0.2289, px=  0.9826, py=  0.9826, 
                 spin up      =   5.7811, d =  2.4380, dz2=  0.4759, dxz=  0.4719, dyz=  0.4719, dx2-y2=  0.5091, dxy=  0.5091, 
                 spin down    =   5.7811, s =  1.1490, 
                 spin down    =   5.7811, p =  2.1940, pz=  0.2289, px=  0.9826, py=  0.9826, 
                 spin down    =   5.7811, d =  2.4380, dz2=  0.4759, dxz=  0.4719, dyz=  0.4719, dx2-y2=  0.5091, dxy=  0.5091, 
                 polarization =   0.0000, s =  0.0000, p = -0.0000, d =  0.0000, 
     Atom #   2: total charge =   6.0523, s =  1.5723, p =  3.5670, d =  0.9130, 
                 spin up      =   3.0262, s =  0.7861, 
                 spin up      =   3.0262, p =  1.7835, pz=  0.5339, px=  0.6248, py=  0.6248, 
                 spin up      =   3.0262, d =  0.4565, dz2=  0.0928, dxz=  0.0734, dyz=  0.0734, dx2-y2=  0.1084, dxy=  0.1084, 
                 spin down    =   3.0262, s =  0.7861, 
                 spin down    =   3.0262, p =  1.7835, pz=  0.5339, px=  0.6248, py=  0.6248, 
                 spin down    =   3.0262, d =  0.4565, dz2=  0.0928, dxz=  0.0734, dyz=  0.0734, dx2-y2=  0.1084, dxy=  0.1084, 
                 polarization =  -0.0000, s = -0.0000, p = -0.0000, d = -0.0000, 
     Atom #   3: total charge =   6.0523, s =  1.5723, p =  3.5670, d =  0.9130, 
                 spin up      =   3.0262, s =  0.7861, 
                 spin up      =   3.0262, p =  1.7835, pz=  0.5339, px=  0.6248, py=  0.6248, 
                 spin up      =   3.0262, d =  0.4565, dz2=  0.0928, dxz=  0.0734, dyz=  0.0734, dx2-y2=  0.1084, dxy=  0.1084, 
                 spin down    =   3.0262, s =  0.7861, 
                 spin down    =   3.0262, p =  1.7835, pz=  0.5339, px=  0.6248, py=  0.6248, 
                 spin down    =   3.0262, d =  0.4565, dz2=  0.0928, dxz=  0.0734, dyz=  0.0734, dx2-y2=  0.1084, dxy=  0.1084, 
                 polarization =  -0.0000, s = -0.0000, p = -0.0000, d = -0.0000, 
     Spilling Parameter:   0.0897

     PROJWFC      :      0.79s CPU      0.80s WALL


   This run was terminated on:  17:49:18  21Oct2020            

=------------------------------------------------------------------------------=
   JOB DONE.
=------------------------------------------------------------------------------=
