  ABINIT 9.6.3
  
-instrng: 74 lines of input have been read from file 0D_H2.abi


.Version 9.6.3 of ABINIT 
.(MPI version, prepared for a x86_64_linux_gnu9.4 computer) 

.Copyright (C) 1998-2021 ABINIT group . 
 ABINIT comes with ABSOLUTELY NO WARRANTY.
 It is free software, and you are welcome to redistribute it
 under certain conditions (GNU General Public License,
 see ~abinit/COPYING or http://www.gnu.org/copyleft/gpl.txt).

 ABINIT is a project of the Universite Catholique de Louvain,
 Corning Inc. and other collaborators, see ~abinit/doc/developers/contributors.txt .
 Please read https://docs.abinit.org/theory/acknowledgments for suggested
 acknowledgments of the ABINIT effort.
 For more information, see https://www.abinit.org .

.Starting date : Wed  9 Aug 2023.
- ( at 16h10 )
  

 ++++++++++++++++++++++++++++++++++++++++++++++++++++++++++++++++++++++++++++++

 === Build Information === 
  Version       : 9.6.3
  Build target  : x86_64_linux_gnu9.4
  Build date    : 20220512

 === Compiler Suite === 
  C compiler       : gnu9.4
  C++ compiler     : gnu9.4
  Fortran compiler : gnu9.4
  CFLAGS           : -g -O2 -mtune=native -march=native
  CXXFLAGS         : -g -O2 -mtune=native -march=native
  FCFLAGS          : -g -ffree-line-length-none  -fopenmp   -I/data/shared/yambo-libs/de ...
  FC_LDFLAGS       : 

 === Optimizations === 
  Debug level        : basic
  Optimization level : standard
  Architecture       : unknown_unknown

 === Multicore === 
  Parallel build : yes
  Parallel I/O   : yes
  openMP support : yes
  GPU support    : 

 === Connectors / Fallbacks === 
  LINALG flavor  : netlib
  FFT flavor     : goedecker
  HDF5           : yes
  NetCDF         : yes
  NetCDF Fortran : yes
  LibXC          : yes
  Wannier90      : no

 === Experimental features === 
  Exports             : 
  GW double-precision : 

 ++++++++++++++++++++++++++++++++++++++++++++++++++++++++++++++++++++++++++++++


 ++++++++++++++++++++++++++++++++++++++++++++++++++++++++++++++++++++++++++++++
 Default optimizations:
   -O2 -mtune=native -march=native


 Optimizations for 43_ptgroups:
   -O0


 ++++++++++++++++++++++++++++++++++++++++++++++++++++++++++++++++++++++++++++++


 ++++++++++++++++++++++++++++++++++++++++++++++++++++++++++++++++++++++++++++++
 CPP options activated during the build:

                    CC_GNU                   CXX_GNU                    FC_GNU
 
 HAVE_FC_ALLOCATABLE_DT...             HAVE_FC_ASYNC         HAVE_FC_BACKTRACE
 
  HAVE_FC_COMMAND_ARGUMENT      HAVE_FC_COMMAND_LINE        HAVE_FC_CONTIGUOUS
 
           HAVE_FC_CPUTIME              HAVE_FC_EXIT             HAVE_FC_FLUSH
 
             HAVE_FC_GAMMA            HAVE_FC_GETENV   HAVE_FC_IEEE_ARITHMETIC
 
   HAVE_FC_IEEE_EXCEPTIONS          HAVE_FC_INT_QUAD             HAVE_FC_IOMSG
 
     HAVE_FC_ISO_C_BINDING  HAVE_FC_ISO_FORTRAN_2008        HAVE_FC_LONG_LINES
 
        HAVE_FC_MOVE_ALLOC  HAVE_FC_ON_THE_FLY_SHAPE           HAVE_FC_PRIVATE
 
         HAVE_FC_PROTECTED           HAVE_FC_SHIFTLR         HAVE_FC_STREAM_IO
 
            HAVE_FC_SYSTEM          HAVE_FORTRAN2003                 HAVE_HDF5
 
             HAVE_HDF5_MPI        HAVE_LIBPAW_ABINIT      HAVE_LIBTETRA_ABINIT
 
                HAVE_LIBXC                  HAVE_MPI                 HAVE_MPI2
 
       HAVE_MPI_IALLGATHER       HAVE_MPI_IALLREDUCE        HAVE_MPI_IALLTOALL
 
       HAVE_MPI_IALLTOALLV           HAVE_MPI_IBCAST         HAVE_MPI_IGATHERV
 
        HAVE_MPI_INTEGER16               HAVE_MPI_IO HAVE_MPI_TYPE_CREATE_S...
 
               HAVE_NETCDF       HAVE_NETCDF_FORTRAN   HAVE_NETCDF_FORTRAN_MPI
 
           HAVE_NETCDF_MPI                HAVE_NUMPY         HAVE_OMP_COLLAPSE
 
               HAVE_OPENMP             HAVE_OS_LINUX         HAVE_TIMER_ABINIT
 
 ++++++++++++++++++++++++++++++++++++++++++++++++++++++++++++++++++++++++++++++

- input  file    -> 0D_H2.abi
- output file    -> 0D_H2.out
- root for input  files -> 0D_H2_i
- root for output files -> 0D_H2_o

 Netcdf library supports MPI-IO
-instrng: 74 lines of input have been read from file 0D_H2.abi

 For atom type 1, psp file is ../../pseudo/1h.pspnc
  read the values zionpsp=  1.0 , pspcod=   1 , lmax=   0

 inpspheads: deduce mpsang = 1, n1xccc = 0.

======================================================= 
 invars1m : enter jdtset= 1

 symlatt: the Bravais lattice is cP (primitive cubic)
  xcart  is defined in input file (possibly in Angstrom)
 ingeo: takes atomic coordinates from input array xcart

--- !COMMENT
src_file: m_ingeo.F90
src_line: 900
message: |
    The tolerance on symmetries =   1.000E-05 is bigger than 1.0e-8.
    In order to avoid spurious effects, the atomic coordinates have been
    symmetrized before storing them in the dataset internal variable.
    So, do not be surprised by the fact that your input variables (xcart, xred, ...)
    do not correspond exactly to the ones echoed by ABINIT, the latter being used to do the calculations.
    This is not a problem per se.
    Still, in order to avoid this symmetrization (e.g. for specific debugging/development), decrease tolsym to 1.0e-8 or lower,
    or (much preferred) use input primitive vectors that are accurate to better than 1.0e-8.
    This message will only be printed once, even if there are other datasets where tolsym is bigger than 1.0e-8.
...


 symlatt: the Bravais lattice is cP (primitive cubic)

 symlatt: the Bravais lattice is cP (primitive cubic)

--- !COMMENT
src_file: m_symfind.F90
src_line: 1020
message: |
    The Bravais lattice determined only from the primitive
    vectors, bravais(1)=  7, is more symmetric
    than the real one, iholohedry=  4, obtained by taking into
    account the atomic positions. Start deforming the primitive vector set.
...


 symlatt: the Bravais lattice is tP (primitive tetragonal)
 symspgr: spgroup= 123  P4/m m m   (=D4h^1)
 symspgr: optical characteristics = uniaxial
 Optical axis (in reduced coordinates, real space ) :   1   0   0

======================================================= 
 invars1m : enter jdtset= 2

 symlatt: the Bravais lattice is cP (primitive cubic)
  xcart  is defined in input file (possibly in Angstrom)
 ingeo: takes atomic coordinates from input array xcart

 symlatt: the Bravais lattice is cP (primitive cubic)

 symlatt: the Bravais lattice is cP (primitive cubic)

--- !COMMENT
src_file: m_symfind.F90
src_line: 1020
message: |
    The Bravais lattice determined only from the primitive
    vectors, bravais(1)=  7, is more symmetric
    than the real one, iholohedry=  4, obtained by taking into
    account the atomic positions. Start deforming the primitive vector set.
...


 symlatt: the Bravais lattice is tP (primitive tetragonal)
 symspgr: spgroup= 123  P4/m m m   (=D4h^1)
 symspgr: optical characteristics = uniaxial
 Optical axis (in reduced coordinates, real space ) :   1   0   0

======================================================= 
 invars1m : enter jdtset= 3

 symlatt: the Bravais lattice is cP (primitive cubic)
  xcart  is defined in input file (possibly in Angstrom)
 ingeo: takes atomic coordinates from input array xcart

 symlatt: the Bravais lattice is cP (primitive cubic)

 symlatt: the Bravais lattice is cP (primitive cubic)

--- !COMMENT
src_file: m_symfind.F90
src_line: 1020
message: |
    The Bravais lattice determined only from the primitive
    vectors, bravais(1)=  7, is more symmetric
    than the real one, iholohedry=  4, obtained by taking into
    account the atomic positions. Start deforming the primitive vector set.
...


 symlatt: the Bravais lattice is tP (primitive tetragonal)
 symspgr: spgroup= 123  P4/m m m   (=D4h^1)
 symspgr: optical characteristics = uniaxial
 Optical axis (in reduced coordinates, real space ) :   1   0   0
 For input ecut=  1.400000E+01 best grid ngfft=      54      54      54
       max ecut=  1.598876E+01

 ==== FFT mesh ====
  FFT mesh divisions ........................    54   54   54
  Augmented FFT divisions ...................    55   55   54
  FFT algorithm .............................   112
  FFT cache size ............................    16
 getmpw: optimal value of mpw= 4193
 For input ecut=  1.400000E+01 best grid ngfft=      54      54      54
       max ecut=  1.598876E+01

 ==== FFT mesh ====
  FFT mesh divisions ........................    54   54   54
  Augmented FFT divisions ...................    55   55   54
  FFT algorithm .............................   112
  FFT cache size ............................    16
 getmpw: optimal value of mpw= 8385
 For input ecut=  1.400000E+01 best grid ngfft=      54      54      54
       max ecut=  1.598876E+01

 ==== FFT mesh ====
  FFT mesh divisions ........................    54   54   54
  Augmented FFT divisions ...................    55   55   54
  FFT algorithm .............................   112
  FFT cache size ............................    16
 getmpw: optimal value of mpw= 8385

 DATASET    1 : space group P4/m m m (#123); Bravais tP (primitive tetrag.)

--- !COMMENT
src_file: m_memeval.F90
src_line: 2393
message: |
    Despite there is only a local part to pseudopotential(s),
    lmnmax and lnmax are set to 1.
...


 getdim_nloc : deduce lmnmax  =   1, lnmax  =   1,
                      lmnmaxso=   1, lnmaxso=   1.
memory: analysis of memory needs
================================================================================
 Values of the parameters that define the memory need for DATASET  1.
     intxc =       0    ionmov =       0      iscf =       3    lmnmax =       1
     lnmax =       1     mgfft =      54  mpssoang =       1    mqgrid =    3001
     natom =       2  nloc_mem =       1    nspden =       1   nspinor =       1
    nsppol =       1      nsym =      16    n1xccc =       0    ntypat =       1
    occopt =       1   xclevel =       1
-    mband =           4        mffmem =           1         mkmem =           1
       mpw =        4193          nfft =      157464          nkpt =           1
================================================================================
P This job should need less than                      33.835 Mbytes of memory.
  Rough estimation (10% accuracy) of disk space for files :
_ WF disk file :      0.258 Mbytes ; DEN or POT disk file :      1.203 Mbytes.
================================================================================

 Biggest array : f_fftgr(disk), with      4.8074 MBytes.
 memana : allocated an array of      4.807 Mbytes, for testing purposes.
 memana: allocated      33.835Mbytes, for testing purposes. 
 The job will continue.

 DATASET    2 : space group P4/m m m (#123); Bravais tP (primitive tetrag.)

--- !COMMENT
src_file: m_memeval.F90
src_line: 2393
message: |
    Despite there is only a local part to pseudopotential(s),
    lmnmax and lnmax are set to 1.
...


 getdim_nloc : deduce lmnmax  =   1, lnmax  =   1,
                      lmnmaxso=   1, lnmaxso=   1.
memory: analysis of memory needs
================================================================================
 Values of the parameters that define the memory need for DATASET  2.
     intxc =       0    ionmov =       0      iscf =       7    lmnmax =       1
     lnmax =       1     mgfft =      54  mpssoang =       1    mqgrid =    3001
     natom =       2  nloc_mem =       1    nspden =       1   nspinor =       1
    nsppol =       1      nsym =      16    n1xccc =       0    ntypat =       1
    occopt =       1   xclevel =       0
-    mband =           4        mffmem =           1         mkmem =           1
       mpw =        8385          nfft =      157464          nkpt =           1
================================================================================
P This job should need less than                      49.083 Mbytes of memory.
  Rough estimation (10% accuracy) of disk space for files :
_ WF disk file :      0.514 Mbytes ; DEN or POT disk file :      1.203 Mbytes.
================================================================================

 Biggest array : f_fftgr(disk), with     19.2237 MBytes.
 memana : allocated an array of     19.224 Mbytes, for testing purposes.
 memana: allocated      49.083Mbytes, for testing purposes. 
 The job will continue.

 DATASET    3 : space group P4/m m m (#123); Bravais tP (primitive tetrag.)

--- !COMMENT
src_file: m_memeval.F90
src_line: 2393
message: |
    Despite there is only a local part to pseudopotential(s),
    lmnmax and lnmax are set to 1.
...


 getdim_nloc : deduce lmnmax  =   1, lnmax  =   1,
                      lmnmaxso=   1, lnmaxso=   1.
memory: analysis of memory needs
================================================================================
 Values of the parameters that define the memory need for DATASET  3.
     intxc =       0    ionmov =       0      iscf =      -2    lmnmax =       1
     lnmax =       1     mgfft =      54  mpssoang =       1    mqgrid =    3001
     natom =       2  nloc_mem =       1    nspden =       1   nspinor =       1
    nsppol =       1      nsym =      16    n1xccc =       0    ntypat =       1
    occopt =       1   xclevel =       0
-    mband =          50        mffmem =           1         mkmem =           1
       mpw =        8385          nfft =      157464          nkpt =           1
================================================================================
P This job should need less than                      35.818 Mbytes of memory.
  Rough estimation (10% accuracy) of disk space for files :
_ WF disk file :      6.399 Mbytes ; DEN or POT disk file :      1.203 Mbytes.
================================================================================

 Biggest array : cg(disk), with      6.3992 MBytes.
 memana : allocated an array of      6.399 Mbytes, for testing purposes.
 memana: allocated      35.818Mbytes, for testing purposes. 
 The job will continue.
--------------------------------------------------------------------------------
------------- Echo of variables that govern the present computation ------------
--------------------------------------------------------------------------------
-
- outvars: echo of selected default values                                      
-   iomode0 =  0 , fftalg0 =112 , wfoptalg0 =  0
-
- outvars: echo of global parameters not present in the input file              
-  max_nthreads =    1
-
 -outvars: echo values of preprocessed input variables --------
 
 These variables are accessible in NetCDF format (0D_H2_o_OUT.nc)

-          iomode           3
            acell      1.5000000000E+01  1.5000000000E+01  1.5000000000E+01 Bohr
              amu      1.00794000E+00
           diemac      2.00000000E+00
             ecut      1.40000000E+01 Hartree
          ecuteps1     0.00000000E+00 Hartree
          ecuteps2     2.00000000E+00 Hartree
          ecuteps3     2.00000000E+00 Hartree
         ecutsigx1     0.00000000E+00 Hartree
         ecutsigx2     1.40000000E+01 Hartree
         ecutsigx3     1.40000000E+01 Hartree
          ecutwfn1     0.00000000E+00 Hartree
          ecutwfn2     1.40000000E+01 Hartree
          ecutwfn3     1.40000000E+01 Hartree
-          fftalg         112
           getden1          0
           getden2          0
           getden3          2
           getwfk1          0
           getwfk2          1
           getwfk3          2
         icutcoul1          3
         icutcoul2          0
         icutcoul3          0
             iscf1          3
             iscf2          7
             iscf3         -2
           istwfk1       2
           istwfk2       1
           istwfk3       1
              ixc1          1
              ixc2         40
              ixc3         40
           jdtset        1    2    3
         kptns_hf2     0.00000000E+00  0.00000000E+00  0.00000000E+00
         kptns_hf3     0.00000000E+00  0.00000000E+00  0.00000000E+00
         kptrlatt        1    0    0      0    1    0      0    0    1
          kptrlen      1.50000000E+04
P           mkmem           1
            natom           2
            nband1          4
            nband2          4
            nband3         50
          nbandhf           1
           nbdbuf1          0
           nbdbuf2          0
           nbdbuf3          2
           ndtset           3
            ngfft          54      54      54
             nkpt           1
           nkpthf           1
            nstep1       1000
            nstep2         30
            nstep3       3000
             nsym          16
           ntypat           1
              occ      2.000000  0.000000  0.000000  0.000000
          prtkbff1          0
          prtkbff2          0
          prtkbff3          1
          spgroup         123
        symmorphi1          1
        symmorphi2          1
        symmorphi3          0
           symrel      1  0  0   0  1  0   0  0  1      -1  0  0   0 -1  0   0  0 -1
                      -1  0  0   0  1  0   0  0 -1       1  0  0   0 -1  0   0  0  1
                      -1  0  0   0 -1  0   0  0  1       1  0  0   0  1  0   0  0 -1
                       1  0  0   0 -1  0   0  0 -1      -1  0  0   0  1  0   0  0  1
                       1  0  0   0  0  1   0  1  0      -1  0  0   0  0 -1   0 -1  0
                      -1  0  0   0  0  1   0 -1  0       1  0  0   0  0 -1   0  1  0
                      -1  0  0   0  0 -1   0  1  0       1  0  0   0  0  1   0 -1  0
                       1  0  0   0  0 -1   0 -1  0      -1  0  0   0  0  1   0  1  0
           toldfe1     1.00000000E-12 Hartree
           toldfe2     1.00000000E-12 Hartree
           toldfe3     0.00000000E+00 Hartree
           tolwfr1     0.00000000E+00
           tolwfr2     0.00000000E+00
           tolwfr3     1.00000000E-10
            typat      1  1
          usefock1          0
          usefock2          1
          usefock3          1
           xangst     -1.0583544172E+00  0.0000000000E+00  0.0000000000E+00
                       1.0583544172E+00  0.0000000000E+00  0.0000000000E+00
            xcart     -2.0000000000E+00  0.0000000000E+00  0.0000000000E+00
                       2.0000000000E+00  0.0000000000E+00  0.0000000000E+00
             xred     -1.3333333333E-01  0.0000000000E+00  0.0000000000E+00
                       1.3333333333E-01  0.0000000000E+00  0.0000000000E+00
            znucl        1.00000

================================================================================

 chkinp: Checking input parameters for consistency, jdtset=   1.

 chkinp: Checking input parameters for consistency, jdtset=   2.

 chkinp: Checking input parameters for consistency, jdtset=   3.
 DATA TYPE INFORMATION: 
 REAL:      Data type name: REAL(DP) 
            Kind value:      8
            Precision:      15
            Smallest nonnegligible quantity relative to 1: 0.22204460E-015
            Smallest positive number:                      0.22250739E-307
            Largest representable number:                  0.17976931E+309
 INTEGER:   Data type name: INTEGER(default) 
            Kind value: 4
            Bit size:   32
            Largest representable number: 2147483647
 LOGICAL:   Data type name: LOGICAL 
            Kind value: 4
 CHARACTER: Data type name: CHARACTER             Kind value: 1

  ==== OpenMP parallelism is ON ====
- Max_threads:       1
- Num_threads:       1
- Num_procs:         6
- Dynamic:           F
 
  ==== Using MPI-2 specifications ==== 
  MPI-IO support is ON
  xmpi_tag_ub ................    268435455
  xmpi_bsize_ch ..............            1
  xmpi_bsize_int .............            4
  xmpi_bsize_sp ..............            4
  xmpi_bsize_dp ..............            8
  xmpi_bsize_spc .............            8
  xmpi_bsize_dpc .............           16
  xmpio_bsize_frm ............            4
  xmpi_address_kind ..........            8
  xmpi_offset_kind ...........            8
  MPI_WTICK ..................    1.0000000000000001E-009

================================================================================
== DATASET  1 ==================================================================
-   mpi_nproc: 1, omp_nthreads: 1 (-1 if OMP is not activated)


--- !COMMENT
src_file: m_xgScalapack.F90
src_line: 236
message: |
    xgScalapack in auto mode
...


--- !COMMENT
src_file: m_memeval.F90
src_line: 2393
message: |
    Despite there is only a local part to pseudopotential(s),
    lmnmax and lnmax are set to 1.
...


 getdim_nloc : deduce lmnmax  =   1, lnmax  =   1,
                      lmnmaxso=   1, lnmaxso=   1.
 Exchange-correlation functional for the present dataset will be:
  LDA: new Teter (4/93) with spin-polarized option - ixc=1
 Citation for XC functional:
  S. Goedecker, M. Teter, J. Huetter, PRB 54, 1703 (1996)

 Unit cell volume ucvol=  3.3750000E+03 bohr^3
 Angles (23,13,12)=  9.00000000E+01  9.00000000E+01  9.00000000E+01 degrees

 getcut: wavevector=  0.0000  0.0000  0.0000  ngfft=  54  54  54
         ecut(hartree)=     14.000   => boxcut(ratio)=   2.13734
- pspini: atom type   1  psp file is ../../pseudo/1h.pspnc
- pspatm: opening atomic psp file    ../../pseudo/1h.pspnc
-  Troullier-Martins psp for element  H         Thu Oct 27 17:28:54 EDT 1994
-  1.00000   1.00000    940714                znucl, zion, pspdat
    1    1    0    0      2001   0.00000      pspcod,pspxc,lmax,lloc,mmax,r2well
    0   7.740  11.990    0   1.5855604        l,e99.0,e99.9,nproj,rcpsp
   0.00000000   0.00000000   0.00000000   0.00000000     rms, ekb1, ekb2, epsatm
    0.00000000000000    0.00000000000000    0.00000000000000   rchrg,fchrg,qchrg
 Note: local psp for atom with Z=  1.0
  pspatm : epsatm=    0.04198703
         --- l  ekb(1:nproj) -->
 pspatm: atomic psp has been read  and splines computed

   1.67948119E-01                                ecore*ucvol(ha*bohr**3)
 ==== Info on pseudopotentials ====
  Norm-conserving pseudopotentials
  Number of pseudopotentials ..    1
  Number of types of atoms   ..    1
  Scalar calculation (no spin-orbit term)
  Nonlocal part applied using Legendre polynomials
  Max number of non-local projectors over l and type   0
  Highest angular momentum +1 .......   1
  Max number of (l,n)   components ..   1
  Max number of (l,m,n) components ..   1

 Info on the Q-grid used for form factors in spline form: 
   Number of q-points for radial functions ffspl ..   3001
   Number of q-points for vlspl ...................   3001
   vloc is computed in Reciprocal Space
   model core charge treated in real-space

  XC functional for type 1 is 1
  Pseudo valence available: no

 symatm: atom number 1 is reached starting at atom
   1  2  2  1  2  1  1  2  1  2  2  1  2  1  1  2
 symatm: atom number 2 is reached starting at atom
   2  1  1  2  1  2  2  1  2  1  1  2  1  2  2  1
 wfconv:     4 bands initialized randomly with npw=  4193, for ikpt=     1
_setup2: Arith. and geom. avg. npw (full set) are    8385.000    8385.000
 initro: for itypat=  1, take decay length=      0.6000,
 initro: indeed, coreel=      0.0000, nval=  1 and densty=  0.0000E+00.

================================================================================

 getcut: wavevector=  0.0000  0.0000  0.0000  ngfft=  54  54  54
         ecut(hartree)=     14.000   => boxcut(ratio)=   2.13734

 1/G**2 cut-off applied in the following step : cutoff-mode = CRYSTAL

 1/G**2 cut-off applied in the following step : cutoff-mode = CRYSTAL

 1/G**2 cut-off applied in the following step : cutoff-mode = CRYSTAL

 ITER STEP NUMBER     1
 Max number of non-self-consistent loops: 2
 Total charge density [el/Bohr^3]
      Maximum=    1.2564E-01  at reduced coord.    0.8704    0.0000    0.0000
      Minimum=    1.3405E-08  at reduced coord.    0.5000    0.5000    0.3704
   Integrated=    2.0000E+00

 1/G**2 cut-off applied in the following step : cutoff-mode = CRYSTAL
 ETOT  1 -0.96302225224808    -9.630E-01 1.531E-03 4.226E+01
 scprqt: <Vxc>= -4.2217798E-02 hartree

 Simple mixing update:
  residual square of the potential:    17.850394405585494
{SCF_istep: 1 , Vnl|psi>: 40 , wall_time: '  0.15 [s] '} <<< TIME

 ITER STEP NUMBER     2
 Max number of non-self-consistent loops: 2
 Total charge density [el/Bohr^3]
      Maximum=    1.2986E-01  at reduced coord.    0.8704    0.0000    0.0000
      Minimum=    0.0000E+00  at reduced coord.    0.5000    0.5000    0.3519
   Integrated=    2.0000E+00
 ETOT  2 -0.96355437050545    -5.321E-04 2.078E-09 8.081E+00
 scprqt: <Vxc>= -4.2290879E-02 hartree

 Anderson update:
  residual square of the potential:    2.9520640305417483
  mixing of old trial potential:  -0.52395082290606698
  predicted best residual square on the line:   0.95491920606105041
{SCF_istep: 2 , Vnl|psi>: 39 , wall_time: '  0.09 [s] '} <<< TIME

 ITER STEP NUMBER     3
 Total charge density [el/Bohr^3]
      Maximum=    1.2935E-01  at reduced coord.    0.8704    0.0000    0.0000
      Minimum=    0.0000E+00  at reduced coord.    0.5000    0.5000    0.3519
   Integrated=    2.0000E+00
 ETOT  3 -0.96356396755563    -9.597E-06 5.350E-07 1.973E-01
 scprqt: <Vxc>= -4.2345581E-02 hartree

 Anderson update:
  residual square of the potential:    7.1455294661632543E-002
  mixing of old trial potential:  -0.11655730375585908
  predicted best residual square on the line:    3.9718737186518020E-002
{SCF_istep: 3 , Vnl|psi>: 17 , wall_time: '  0.05 [s] '} <<< TIME

 ITER STEP NUMBER     4
 Total charge density [el/Bohr^3]
      Maximum=    1.2950E-01  at reduced coord.    0.8704    0.0000    0.0000
      Minimum=    0.0000E+00  at reduced coord.    0.5000    0.5000    0.3519
   Integrated=    2.0000E+00
 ETOT  4 -0.96356650021874    -2.533E-06 8.264E-08 4.662E-03
 scprqt: <Vxc>= -4.2186366E-02 hartree

 Anderson update:
  residual square of the potential:    2.3298238844931120E-003
  mixing of old trial potential:  -0.12123455442354593
  predicted best residual square on the line:    1.5121025221162259E-003
{SCF_istep: 4 , Vnl|psi>: 17 , wall_time: '  0.05 [s] '} <<< TIME

 ITER STEP NUMBER     5
 Total charge density [el/Bohr^3]
      Maximum=    1.2955E-01  at reduced coord.    0.8704    0.0000    0.0000
      Minimum=    0.0000E+00  at reduced coord.    0.5000    0.4815    0.3519
   Integrated=    2.0000E+00
 ETOT  5 -0.96356671110653    -2.109E-07 6.827E-09 2.580E-04
 scprqt: <Vxc>= -4.2140452E-02 hartree

 Anderson update:
  residual square of the potential:    1.3055503611690558E-004
  mixing of old trial potential:  -0.12127527414028511
  predicted best residual square on the line:    1.0452296108305766E-004
{SCF_istep: 5 , Vnl|psi>: 17 , wall_time: '  0.05 [s] '} <<< TIME

 ITER STEP NUMBER     6
 Total charge density [el/Bohr^3]
      Maximum=    1.2955E-01  at reduced coord.    0.8704    0.0000    0.0000
      Minimum=    0.0000E+00  at reduced coord.    0.5000    0.4815    0.3519
   Integrated=    2.0000E+00
 ETOT  6 -0.96356671678499    -5.678E-09 1.852E-10 4.224E-05
 scprqt: <Vxc>= -4.2133432E-02 hartree

 Anderson update:
  residual square of the potential:    1.5960880490124062E-005
  mixing of old trial potential:  -0.25825958082904160
  predicted best residual square on the line:    1.0920916303659910E-005
{SCF_istep: 6 , Vnl|psi>: 17 , wall_time: '  0.05 [s] '} <<< TIME

 ITER STEP NUMBER     7
 Total charge density [el/Bohr^3]
      Maximum=    1.2956E-01  at reduced coord.    0.8704    0.0000    0.0000
      Minimum=    0.0000E+00  at reduced coord.    0.5000    0.4815    0.3519
   Integrated=    2.0000E+00
 ETOT  7 -0.96356671682028    -3.529E-11 2.083E-12 4.900E-06
 scprqt: <Vxc>= -4.2133043E-02 hartree

 Anderson update:
  residual square of the potential:    1.6883968309056211E-006
  mixing of old trial potential:  -0.30358248132150806
  predicted best residual square on the line:    8.6994615590147054E-007
{SCF_istep: 7 , Vnl|psi>: 16 , wall_time: '  0.05 [s] '} <<< TIME

 ITER STEP NUMBER     8
 Total charge density [el/Bohr^3]
      Maximum=    1.2956E-01  at reduced coord.    0.8704    0.0000    0.0000
      Minimum=    0.0000E+00  at reduced coord.    0.5000    0.4815    0.3519
   Integrated=    2.0000E+00
 ETOT  8 -0.96356671683732    -1.703E-11 7.632E-13 2.184E-07
 scprqt: <Vxc>= -4.2133548E-02 hartree

 Anderson update:
  residual square of the potential:    8.8258992820674679E-008
  mixing of old trial potential:  -0.18027390553934983
  predicted best residual square on the line:    5.0037352418209243E-008
{SCF_istep: 8 , Vnl|psi>: 17 , wall_time: '  0.06 [s] '} <<< TIME

 ITER STEP NUMBER     9
 Total charge density [el/Bohr^3]
      Maximum=    1.2955E-01  at reduced coord.    0.8704    0.0000    0.0000
      Minimum=    0.0000E+00  at reduced coord.    0.5000    0.4815    0.3519
   Integrated=    2.0000E+00
 ETOT  9 -0.96356671684100    -3.683E-12 1.445E-13 8.670E-09
 scprqt: <Vxc>= -4.2133765E-02 hartree

 Anderson update:
  residual square of the potential:    4.4048221475332704E-009
  mixing of old trial potential:  -0.13458834708710468
  predicted best residual square on the line:    3.2080333965389518E-009
{SCF_istep: 9 , Vnl|psi>: 18 , wall_time: '  0.06 [s] '} <<< TIME

 ITER STEP NUMBER    10
 Total charge density [el/Bohr^3]
      Maximum=    1.2955E-01  at reduced coord.    0.8704    0.0000    0.0000
      Minimum=    0.0000E+00  at reduced coord.    0.5000    0.4815    0.3519
   Integrated=    2.0000E+00
 ETOT 10 -0.96356671684115    -1.502E-13 5.849E-15 1.028E-09
 scprqt: <Vxc>= -4.2133808E-02 hartree

 Anderson update:
  residual square of the potential:    4.2103803670101624E-010
  mixing of old trial potential:  -0.19962254262069587
  predicted best residual square on the line:    3.0758368177092410E-010
{SCF_istep: 10 , Vnl|psi>: 17 , wall_time: '  0.06 [s] '} <<< TIME

 ITER STEP NUMBER    11
 Total charge density [el/Bohr^3]
      Maximum=    1.2955E-01  at reduced coord.    0.8704    0.0000    0.0000
      Minimum=    0.0000E+00  at reduced coord.    0.5000    0.4815    0.3519
   Integrated=    2.0000E+00
 ETOT 11 -0.96356671684104     1.106E-13 7.293E-17 1.507E-10
 scprqt: <Vxc>= -4.2133812E-02 hartree

 At SCF step   11, etot is converged : 
  for the second time, diff in etot=  1.106E-13 < toldfe=  1.000E-12
 
 -------------------------------------------------------------------------------------------------
 Ekinetic   = :     6.960152E-01 Ha ,    1.893954E+01 eV
 Evext_l    = :    -1.534991E+00 Ha ,   -4.176922E+01 eV
 Evext_nl   = :     0.000000E+00 Ha ,    0.000000E+00 eV
 Epsp_core  = :     4.976241E-05 Ha ,    1.354104E-03 eV
 Ehartree   = :     4.578784E-01 Ha ,    1.245950E+01 eV
 Exc_ks     = :    -4.652092E-01 Ha ,   -1.265899E+01 eV
 Enn        = :    -1.173101E-01 Ha ,   -3.192169E+00 eV
 -------------------------------------------------------------------------------------------------
 Etot       = :    -9.635667E-01 Ha ,   -2.621998E+01 eV
 -------------------------------------------------------------------------------------------------

 Cartesian components of stress tensor (hartree/bohr^3)
  sigma(1 1)=  5.46825610E-05  sigma(3 2)=  0.00000000E+00
  sigma(2 2)=  4.68532618E-07  sigma(3 1)=  0.00000000E+00
  sigma(3 3)=  4.68532618E-07  sigma(2 1)=  0.00000000E+00


 fftdatar_write: About to write data to: 0D_H2_o_DS1_DEN with iomode: IO_MODE_ETSF
- Creating HDf5 file with MPI-IO support: 0D_H2_o_DS1_DEN.nc
- Opening HDf5 file with MPI-IO support: 0D_H2_o_DS1_DEN.nc
 IO operation completed. cpu:  0.07 [s] , wall:  0.49 [s] <<< TIME
- Creating HDf5 file with MPI-IO support: 0D_H2_o_DS1_GSR.nc
 Integrated electronic density in atomic spheres:
 ------------------------------------------------
 Atom  Sphere_radius  Integrated_density
    1        2.00000          0.69427037
    2        2.00000          0.69427037
================================================================================

 ----iterations are completed or convergence reached----


 === Gap info ===
  >>>> For spin  1
   Minimum direct gap =   2.1931 [eV], located at k-point      :   0.0000  0.0000  0.0000
   Fundamental gap    =   2.1931 [eV], Top of valence bands at :   0.0000  0.0000  0.0000
                                       Bottom of conduction at :   0.0000  0.0000  0.0000
 Mean square residual over all n,k,spin=   38.122E-18; max=  72.931E-18
   0.0000  0.0000  0.0000    1  7.29312E-17 kpt; spin; max resid(k); each band:
  6.75E-17 4.70E-18 7.29E-17 7.34E-18
in cg_ncwrite with path: 0D_H2_o_DS1_WFK.nc
same layout Writing WFK file: 0D_H2_o_DS1_WFK.nc, with iomode: IO_MODE_ETSF, single writer: F
Using collective IO for the CGs
 collective ncwrite completed. cpu:  0.08 [s] , wall:  0.35 [s] <<< TIME
 prteigrs : about to open file 0D_H2_o_DS1_EIG
 Fermi (or HOMO) energy (hartree) =  -0.26467   Average Vxc (hartree)=  -0.04213
 Eigenvalues (hartree) for nkpt=   1  k points:
 kpt#   1, nband=  4, wtk=  1.00000, kpt=  0.0000  0.0000  0.0000 (reduced coord)
  -0.26467   -0.18408   -0.01187    0.03485
 Total charge density [el/Bohr^3]
      Maximum=    1.2955E-01  at reduced coord.    0.8704    0.0000    0.0000
 Next maximum=    1.2955E-01  at reduced coord.    0.1296    0.0000    0.0000
      Minimum=    0.0000E+00  at reduced coord.    0.5000    0.4815    0.3519
 Next minimum=    0.0000E+00  at reduced coord.    0.5000    0.5000    0.3519
   Integrated=    2.0000E+00

 Cartesian components of stress tensor (hartree/bohr^3)
  sigma(1 1)=  5.46825610E-05  sigma(3 2)=  0.00000000E+00
  sigma(2 2)=  4.68532618E-07  sigma(3 1)=  0.00000000E+00
  sigma(3 3)=  4.68532618E-07  sigma(2 1)=  0.00000000E+00

-Cartesian components of stress tensor (GPa)         [Pressure= -5.4546E-01 GPa]
- sigma(1 1)=  1.60881622E+00  sigma(3 2)=  0.00000000E+00
- sigma(2 2)=  1.37847032E-02  sigma(3 1)=  0.00000000E+00
- sigma(3 3)=  1.37847032E-02  sigma(2 1)=  0.00000000E+00

================================================================================
== DATASET  2 ==================================================================
-   mpi_nproc: 1, omp_nthreads: 1 (-1 if OMP is not activated)


--- !COMMENT
src_file: m_xgScalapack.F90
src_line: 236
message: |
    xgScalapack in auto mode
...

 mkfilename : getwfk/=0, take file _WFK from output of DATASET   1.


--- !COMMENT
src_file: m_memeval.F90
src_line: 2393
message: |
    Despite there is only a local part to pseudopotential(s),
    lmnmax and lnmax are set to 1.
...


 getdim_nloc : deduce lmnmax  =   1, lnmax  =   1,
                      lmnmaxso=   1, lnmaxso=   1.
 Exchange-correlation functional for the present dataset will be:
  Hartree-Fock with mixing coefficient alpha=1

 Unit cell volume ucvol=  3.3750000E+03 bohr^3
 Angles (23,13,12)=  9.00000000E+01  9.00000000E+01  9.00000000E+01 degrees

 getcut: wavevector=  0.0000  0.0000  0.0000  ngfft=  54  54  54
         ecut(hartree)=     14.000   => boxcut(ratio)=   2.13734
- pspini: atom type   1  psp file is ../../pseudo/1h.pspnc
- pspatm: opening atomic psp file    ../../pseudo/1h.pspnc
-  Troullier-Martins psp for element  H         Thu Oct 27 17:28:54 EDT 1994
-  1.00000   1.00000    940714                znucl, zion, pspdat
    1    1    0    0      2001   0.00000      pspcod,pspxc,lmax,lloc,mmax,r2well

--- !WARNING
src_file: m_pspini.F90
src_line: 1039
message: |
    Pseudopotential file pspxc: 1, not equal to input ixc: 40.
    These parameters must agree to get the same xc in ABINIT code as in psp construction.
    Action: check psp design or input file.
    Assume experienced user. Execution will continue.
...

    0   7.740  11.990    0   1.5855604        l,e99.0,e99.9,nproj,rcpsp
   0.00000000   0.00000000   0.00000000   0.00000000     rms, ekb1, ekb2, epsatm
    0.00000000000000    0.00000000000000    0.00000000000000   rchrg,fchrg,qchrg
 Note: local psp for atom with Z=  1.0
  pspatm : epsatm=    0.04198703
         --- l  ekb(1:nproj) -->
 pspatm: atomic psp has been read  and splines computed

 ==== Info on pseudopotentials ====
  Norm-conserving pseudopotentials
  Number of pseudopotentials ..    1
  Number of types of atoms   ..    1
  Scalar calculation (no spin-orbit term)
  Nonlocal part applied using Legendre polynomials
  Max number of non-local projectors over l and type   0
  Highest angular momentum +1 .......   1
  Max number of (l,n)   components ..   1
  Max number of (l,m,n) components ..   1

 Info on the Q-grid used for form factors in spline form: 
   Number of q-points for radial functions ffspl ..   3001
   Number of q-points for vlspl ...................   3001
   vloc is computed in Reciprocal Space
   model core charge treated in real-space

  XC functional for type 1 is 1
  Pseudo valence available: no

 symatm: atom number 1 is reached starting at atom
   1  2  2  1  2  1  1  2  1  2  2  1  2  1  1  2
 symatm: atom number 2 is reached starting at atom
   2  1  1  2  1  2  2  1  2  1  1  2  1  2  2  1
- File: 0D_H2_o_DS1_WFK does not exist but found netcdf file with similar name.
- Opening HDf5 file with MPI-IO support: 0D_H2_o_DS1_WFK.nc
 inwffil: examining the header of disk file: 0D_H2_o_DS1_WFK.nc

================================================================================

          - hdr_check: checking restart file header for consistency -


          current calculation                           restart file
          -------------------                           ------------

  calculation expects a wf_planewave        |  input file contains a wf_planewave
. ABINIT  code version 9.6.3                |  ABINIT  code version 9.6.3
. date 20230809 bantot        4 natom    2  |  date 20230809 bantot        4 natom    2
  nkpt       1 nsym 16 ngfft  54,  54,  54  |  nkpt       1 nsym 16 ngfft  54,  54,  54
  ntypat  1 ecut_eff  14.0000000            |  ntypat  1 ecut_eff  14.0000000
  usepaw  0                                 |  usepaw  0
  usewvl  0                                 |  usewvl  0
  rprimd:                                   |  rprimd:
    15.0000000   0.0000000   0.0000000      |    15.0000000   0.0000000   0.0000000
     0.0000000  15.0000000   0.0000000      |     0.0000000  15.0000000   0.0000000
     0.0000000   0.0000000  15.0000000      |     0.0000000   0.0000000  15.0000000

--- !WARNING
src_file: m_hdr.F90
src_line: 4146
message: |
    input ixc=40 not equal disk file ixc=1
...

  nband:                                    |  nband:
     4                                      |     4
  symafm:                                   |  symafm:
    1  1  1  1  1  1  1  1  1  1  1  1      |    1  1  1  1  1  1  1  1  1  1  1  1
    1  1  1  1                              |    1  1  1  1
  symrel:                                   |  symrel:
    1  0  0  0  1  0  0  0  1               |    1  0  0  0  1  0  0  0  1
   -1  0  0  0 -1  0  0  0 -1               |   -1  0  0  0 -1  0  0  0 -1
   -1  0  0  0  1  0  0  0 -1               |   -1  0  0  0  1  0  0  0 -1
    1  0  0  0 -1  0  0  0  1               |    1  0  0  0 -1  0  0  0  1
   -1  0  0  0 -1  0  0  0  1               |   -1  0  0  0 -1  0  0  0  1
    1  0  0  0  1  0  0  0 -1               |    1  0  0  0  1  0  0  0 -1
    1  0  0  0 -1  0  0  0 -1               |    1  0  0  0 -1  0  0  0 -1
   -1  0  0  0  1  0  0  0  1               |   -1  0  0  0  1  0  0  0  1
    1  0  0  0  0  1  0  1  0               |    1  0  0  0  0  1  0  1  0
   -1  0  0  0  0 -1  0 -1  0               |   -1  0  0  0  0 -1  0 -1  0
   -1  0  0  0  0  1  0 -1  0               |   -1  0  0  0  0  1  0 -1  0
    1  0  0  0  0 -1  0  1  0               |    1  0  0  0  0 -1  0  1  0
   -1  0  0  0  0 -1  0  1  0               |   -1  0  0  0  0 -1  0  1  0
    1  0  0  0  0  1  0 -1  0               |    1  0  0  0  0  1  0 -1  0
    1  0  0  0  0 -1  0 -1  0               |    1  0  0  0  0 -1  0 -1  0
   -1  0  0  0  0  1  0  1  0               |   -1  0  0  0  0  1  0  1  0
  typat:                                    |  typat:
    1  1                                    |    1  1
  so_psp  :                                 |  so_psp  :
    1                                       |    1
  istwfk:                                   |  istwfk:
    1                                       |    2

--- !COMMENT
src_file: m_hdr.F90
src_line: 4408
message: |
    For k point number 1 input istwfk=1 not equal disk file istwfk=2
...


--- !WARNING
src_file: m_hdr.F90
src_line: 4441
message: |
    input ival=0 not equal disk file ival=1
...

  kpt:                                      |  kpt:
     0.0000000   0.0000000   0.0000000      |     0.0000000   0.0000000   0.0000000
  wtk:                                      |  wtk:
    1.000                                   |    1.000
  occ:                                      |  occ:
   2.0 0.0 0.0 0.0                          |   2.0 0.0 0.0 0.0
  tnons:                                    |  tnons:
     0.0000000   0.0000000   0.0000000      |     0.0000000   0.0000000   0.0000000
     0.0000000   0.0000000   0.0000000      |     0.0000000   0.0000000   0.0000000
     0.0000000   0.0000000   0.0000000      |     0.0000000   0.0000000   0.0000000
     0.0000000   0.0000000   0.0000000      |     0.0000000   0.0000000   0.0000000
     0.0000000   0.0000000   0.0000000      |     0.0000000   0.0000000   0.0000000
     0.0000000   0.0000000   0.0000000      |     0.0000000   0.0000000   0.0000000
     0.0000000   0.0000000   0.0000000      |     0.0000000   0.0000000   0.0000000
     0.0000000   0.0000000   0.0000000      |     0.0000000   0.0000000   0.0000000
     0.0000000   0.0000000   0.0000000      |     0.0000000   0.0000000   0.0000000
     0.0000000   0.0000000   0.0000000      |     0.0000000   0.0000000   0.0000000
     0.0000000   0.0000000   0.0000000      |     0.0000000   0.0000000   0.0000000
     0.0000000   0.0000000   0.0000000      |     0.0000000   0.0000000   0.0000000
     0.0000000   0.0000000   0.0000000      |     0.0000000   0.0000000   0.0000000
     0.0000000   0.0000000   0.0000000      |     0.0000000   0.0000000   0.0000000
     0.0000000   0.0000000   0.0000000      |     0.0000000   0.0000000   0.0000000
     0.0000000   0.0000000   0.0000000      |     0.0000000   0.0000000   0.0000000
   znucl:                                   |   znucl:
    1.00                                    |        1.00
  pseudopotential atom type  1:             |  pseudopotential atom type  1:
  pspso   0 pspxc   1                       |  pspso   0 pspxc   1
  pspdat   940714 pspcod    1 zion   1.0    |  pspdat   940714 pspcod    1 zion   1.0
  xred:                                     |  xred:
    -0.1333333   0.0000000   0.0000000      |    -0.1333333   0.0000000   0.0000000
     0.1333333   0.0000000   0.0000000      |     0.1333333   0.0000000   0.0000000

--- !COMMENT
src_file: m_hdr.F90
src_line: 4715
message: |
    Restart of self-consistent calculation need translated wavefunctions.
...

  Indeed, critical differences between current calculation and
  restart file have been detected in:
        * the format of wavefunctions (istwfk)
================================================================================
-inwffil : will read wavefunctions from disk file 0D_H2_o_DS1_WFK.nc
 initwf: disk file gives npw= 4193 nband= 4 for kpt number= 1
 initwf: 4 bands have been initialized from disk
- newkpt: read input wf with ikpt,npw=   1    4193, make ikpt,npw=   1    8385
_setup2: Arith. and geom. avg. npw (full set) are    8385.000    8385.000
 mkrho: echo density (plane-wave part only)
 Total charge density [el/Bohr^3]
      Maximum=    1.2955E-01  at reduced coord.    0.8704    0.0000    0.0000
      Minimum=    0.0000E+00  at reduced coord.    0.5000    0.4815    0.3519
   Integrated=    2.0000E+00

================================================================================

 getcut: wavevector=  0.0000  0.0000  0.0000  ngfft=  54  54  54
         ecut(hartree)=     14.000   => boxcut(ratio)=   2.13734

Fock_init: initialization of Fock operator parameters:
 - The parameter nnsclohf is set to its default value 1.
 ==== Info on fock_type ====
 my_nsppol ... 1
 nkpt_bz ..... 1
 nnsclo_hf ....... 1
 ixc ............. 40
 hybrid mixing.... 1.000000E+00
 hybrid SR mixing 0.000000E+00
 hybrid range DFT 0.000000E+00
 hybrid range Fock 0.000000E+00

--- !WARNING
src_file: m_rhotoxc.F90
src_line: 473
message: |
    Note that no xc is applied (ixc=0).
...


 ITER STEP NUMBER     1
 Max number of non-self-consistent loops: 2
 Total charge density [el/Bohr^3]
      Maximum=    1.1634E-01  at reduced coord.    0.8704    0.0000    0.0000
      Minimum=    0.0000E+00  at reduced coord.    0.5000    0.4815    0.3519
   Integrated=    2.0000E+00

--- !WARNING
src_file: m_rhotoxc.F90
src_line: 473
message: |
    Note that no xc is applied (ixc=0).
...

 ETOT  1 -0.89441815027466    -8.944E-01 5.598E-09 9.370E-01
 scprqt: <Vxc>=  0.0000000E+00 hartree

 Simple mixing update:
  residual square of the potential:   0.54423817970311805
{SCF_istep: 1 , Vnl|psi>: 56 , wall_time: '  0.28 [s] '} <<< TIME

 ITER STEP NUMBER     2
 Max number of non-self-consistent loops: 2
 Total charge density [el/Bohr^3]
      Maximum=    1.1314E-01  at reduced coord.    0.8704    0.0000    0.0000
      Minimum=    0.0000E+00  at reduced coord.    0.5000    0.4815    0.3519
   Integrated=    2.0000E+00

--- !WARNING
src_file: m_rhotoxc.F90
src_line: 473
message: |
    Note that no xc is applied (ixc=0).
...

 ETOT  2 -0.89613147174319    -1.713E-03 1.172E-10 3.238E-01
 scprqt: <Vxc>=  0.0000000E+00 hartree

 Pulay update with  1 previous iterations:
 mixing of old trial potential: alpha(m:m-4)=   2.00     -0.999
{SCF_istep: 2 , Vnl|psi>: 36 , wall_time: '  0.21 [s] '} <<< TIME

 ITER STEP NUMBER     3
 Total charge density [el/Bohr^3]
      Maximum=    1.1368E-01  at reduced coord.    0.8704    0.0000    0.0000
      Minimum=    0.0000E+00  at reduced coord.    0.5000    0.4815    0.3519
   Integrated=    2.0000E+00

--- !WARNING
src_file: m_rhotoxc.F90
src_line: 473
message: |
    Note that no xc is applied (ixc=0).
...

 ETOT  3 -0.89627369638856    -1.422E-04 8.007E-08 8.653E-02
 scprqt: <Vxc>=  0.0000000E+00 hartree

 Pulay update with  2 previous iterations:
 mixing of old trial potential: alpha(m:m-4)=  0.843     -0.227      0.384
{SCF_istep: 3 , Vnl|psi>: 18 , wall_time: '  0.16 [s] '} <<< TIME

 ITER STEP NUMBER     4
 Total charge density [el/Bohr^3]
      Maximum=    1.1254E-01  at reduced coord.    0.8704    0.0000    0.0000
      Minimum=    0.0000E+00  at reduced coord.    0.5000    0.4815    0.3519
   Integrated=    2.0000E+00

--- !WARNING
src_file: m_rhotoxc.F90
src_line: 473
message: |
    Note that no xc is applied (ixc=0).
...

 ETOT  4 -0.89628145394215    -7.758E-06 5.566E-07 4.898E-02
 scprqt: <Vxc>=  0.0000000E+00 hartree

 Pulay update with  3 previous iterations:
 mixing of old trial potential: alpha(m:m-4)=   1.77     -0.188     -0.294     -0.286
{SCF_istep: 4 , Vnl|psi>: 18 , wall_time: '  0.16 [s] '} <<< TIME

 ITER STEP NUMBER     5
 Total charge density [el/Bohr^3]
      Maximum=    1.1303E-01  at reduced coord.    0.8704    0.0000    0.0000
      Minimum=    0.0000E+00  at reduced coord.    0.5000    0.4815    0.3519
   Integrated=    2.0000E+00

--- !WARNING
src_file: m_rhotoxc.F90
src_line: 473
message: |
    Note that no xc is applied (ixc=0).
...

 ETOT  5 -0.89629073697095    -9.283E-06 2.694E-08 3.510E-02
 scprqt: <Vxc>=  0.0000000E+00 hartree

 Pulay update with  4 previous iterations:
 mixing of old trial potential: alpha(m:m-4)=  0.735      0.350     -0.138      0.740E-01 -0.208E-01
{SCF_istep: 5 , Vnl|psi>: 18 , wall_time: '  0.16 [s] '} <<< TIME

 ITER STEP NUMBER     6
 Total charge density [el/Bohr^3]
      Maximum=    1.1280E-01  at reduced coord.    0.8704    0.0000    0.0000
      Minimum=    0.0000E+00  at reduced coord.    0.5000    0.4815    0.3519
   Integrated=    2.0000E+00

--- !WARNING
src_file: m_rhotoxc.F90
src_line: 473
message: |
    Note that no xc is applied (ixc=0).
...

 ETOT  6 -0.89629437770169    -3.641E-06 2.192E-08 6.750E-05
 scprqt: <Vxc>=  0.0000000E+00 hartree

 Pulay update with  5 previous iterations:
 mixing of old trial potential: alpha(m:m-4)=  0.551      0.375      0.640E-01 -0.597E-01  0.598E-01
{SCF_istep: 6 , Vnl|psi>: 18 , wall_time: '  0.16 [s] '} <<< TIME

 ITER STEP NUMBER     7
 Total charge density [el/Bohr^3]
      Maximum=    1.1264E-01  at reduced coord.    0.8704    0.0000    0.0000
      Minimum=    0.0000E+00  at reduced coord.    0.5000    0.4815    0.3519
   Integrated=    2.0000E+00

--- !WARNING
src_file: m_rhotoxc.F90
src_line: 473
message: |
    Note that no xc is applied (ixc=0).
...

 ETOT  7 -0.89629517592858    -7.982E-07 1.201E-08 5.375E-04
 scprqt: <Vxc>=  0.0000000E+00 hartree

 Pulay update with  6 previous iterations:
 mixing of old trial potential: alpha(m:m-4)=  0.966     -0.109      0.201     -0.111      0.274E-03
{SCF_istep: 7 , Vnl|psi>: 18 , wall_time: '  0.16 [s] '} <<< TIME

 ITER STEP NUMBER     8
 Total charge density [el/Bohr^3]
      Maximum=    1.1258E-01  at reduced coord.    0.8704    0.0000    0.0000
      Minimum=    0.0000E+00  at reduced coord.    0.5000    0.4815    0.3519
   Integrated=    2.0000E+00

--- !WARNING
src_file: m_rhotoxc.F90
src_line: 473
message: |
    Note that no xc is applied (ixc=0).
...

 ETOT  8 -0.89629540308156    -2.272E-07 2.775E-09 5.685E-04
 scprqt: <Vxc>=  0.0000000E+00 hartree

 Pulay update with  7 previous iterations:
 mixing of old trial potential: alpha(m:m-4)=   1.67      -1.17      0.530     -0.139E-01 -0.107E-01
{SCF_istep: 8 , Vnl|psi>: 18 , wall_time: '  0.16 [s] '} <<< TIME

 ITER STEP NUMBER     9
 Total charge density [el/Bohr^3]
      Maximum=    1.1260E-01  at reduced coord.    0.8704    0.0000    0.0000
      Minimum=    0.0000E+00  at reduced coord.    0.5000    0.4815    0.3519
   Integrated=    2.0000E+00

--- !WARNING
src_file: m_rhotoxc.F90
src_line: 473
message: |
    Note that no xc is applied (ixc=0).
...

 ETOT  9 -0.89629547467228    -7.159E-08 3.254E-11 4.773E-07
 scprqt: <Vxc>=  0.0000000E+00 hartree

 Pulay update with  7 previous iterations:
 mixing of old trial potential: alpha(m:m-4)=   1.29     -0.416      0.499E-01  0.977E-01 -0.302E-01
{SCF_istep: 9 , Vnl|psi>: 18 , wall_time: '  0.16 [s] '} <<< TIME

 ITER STEP NUMBER    10
 Total charge density [el/Bohr^3]
      Maximum=    1.1261E-01  at reduced coord.    0.8704    0.0000    0.0000
      Minimum=    0.0000E+00  at reduced coord.    0.5000    0.4815    0.3519
   Integrated=    2.0000E+00

--- !WARNING
src_file: m_rhotoxc.F90
src_line: 473
message: |
    Note that no xc is applied (ixc=0).
...

 ETOT 10 -0.89629548201565    -7.343E-09 5.287E-12 1.149E-06
 scprqt: <Vxc>=  0.0000000E+00 hartree

 Pulay update with  7 previous iterations:
 mixing of old trial potential: alpha(m:m-4)=   1.19     -0.114     -0.792E-01  0.533E-02 -0.355E-02
{SCF_istep: 10 , Vnl|psi>: 18 , wall_time: '  0.16 [s] '} <<< TIME

 ITER STEP NUMBER    11
 Total charge density [el/Bohr^3]
      Maximum=    1.1262E-01  at reduced coord.    0.8704    0.0000    0.0000
      Minimum=    0.0000E+00  at reduced coord.    0.5000    0.4815    0.3519
   Integrated=    2.0000E+00

--- !WARNING
src_file: m_rhotoxc.F90
src_line: 473
message: |
    Note that no xc is applied (ixc=0).
...

 ETOT 11 -0.89629548330133    -1.286E-09 9.368E-12 1.799E-07
 scprqt: <Vxc>=  0.0000000E+00 hartree

 Pulay update with  7 previous iterations:
 mixing of old trial potential: alpha(m:m-4)=  0.845      0.273     -0.145      0.415E-01  0.835E-02
{SCF_istep: 11 , Vnl|psi>: 18 , wall_time: '  0.16 [s] '} <<< TIME

 ITER STEP NUMBER    12
 Total charge density [el/Bohr^3]
      Maximum=    1.1262E-01  at reduced coord.    0.8704    0.0000    0.0000
      Minimum=    0.0000E+00  at reduced coord.    0.5000    0.4815    0.3519
   Integrated=    2.0000E+00

--- !WARNING
src_file: m_rhotoxc.F90
src_line: 473
message: |
    Note that no xc is applied (ixc=0).
...

 ETOT 12 -0.89629548372965    -4.283E-10 3.540E-12 4.591E-07
 scprqt: <Vxc>=  0.0000000E+00 hartree

 Pulay update with  7 previous iterations:
 mixing of old trial potential: alpha(m:m-4)=   1.29     -0.623      0.221      0.140     -0.443E-01
{SCF_istep: 12 , Vnl|psi>: 18 , wall_time: '  0.17 [s] '} <<< TIME

 ITER STEP NUMBER    13
 Total charge density [el/Bohr^3]
      Maximum=    1.1262E-01  at reduced coord.    0.8704    0.0000    0.0000
      Minimum=    0.0000E+00  at reduced coord.    0.5000    0.4815    0.3519
   Integrated=    2.0000E+00

--- !WARNING
src_file: m_rhotoxc.F90
src_line: 473
message: |
    Note that no xc is applied (ixc=0).
...

 ETOT 13 -0.89629548381524    -8.559E-11 4.603E-13 2.085E-07
 scprqt: <Vxc>=  0.0000000E+00 hartree

 Pulay update with  7 previous iterations:
 mixing of old trial potential: alpha(m:m-4)=   1.04     -0.219      0.109      0.298E-01  0.543E-01
{SCF_istep: 13 , Vnl|psi>: 18 , wall_time: '  0.17 [s] '} <<< TIME

 ITER STEP NUMBER    14
 Total charge density [el/Bohr^3]
      Maximum=    1.1262E-01  at reduced coord.    0.8704    0.0000    0.0000
      Minimum=    0.0000E+00  at reduced coord.    0.5000    0.4815    0.3519
   Integrated=    2.0000E+00

--- !WARNING
src_file: m_rhotoxc.F90
src_line: 473
message: |
    Note that no xc is applied (ixc=0).
...

 ETOT 14 -0.89629548382226    -7.026E-12 2.695E-14 1.052E-07
 scprqt: <Vxc>=  0.0000000E+00 hartree

 Pulay update with  7 previous iterations:
 mixing of old trial potential: alpha(m:m-4)=   2.14      -1.49      0.398     -0.226      0.144
{SCF_istep: 14 , Vnl|psi>: 17 , wall_time: '  0.17 [s] '} <<< TIME

 ITER STEP NUMBER    15
 Total charge density [el/Bohr^3]
      Maximum=    1.1262E-01  at reduced coord.    0.8704    0.0000    0.0000
      Minimum=    0.0000E+00  at reduced coord.    0.5000    0.4815    0.3519
   Integrated=    2.0000E+00

--- !WARNING
src_file: m_rhotoxc.F90
src_line: 473
message: |
    Note that no xc is applied (ixc=0).
...

 ETOT 15 -0.89629548383281    -1.055E-11 5.764E-14 6.545E-09
 scprqt: <Vxc>=  0.0000000E+00 hartree

 Pulay update with  7 previous iterations:
 mixing of old trial potential: alpha(m:m-4)=   1.06      0.569     -0.514     -0.707E-01 -0.102E-02
{SCF_istep: 15 , Vnl|psi>: 18 , wall_time: '  0.17 [s] '} <<< TIME

 ITER STEP NUMBER    16
 Total charge density [el/Bohr^3]
      Maximum=    1.1262E-01  at reduced coord.    0.8704    0.0000    0.0000
      Minimum=    0.0000E+00  at reduced coord.    0.5000    0.4815    0.3519
   Integrated=    2.0000E+00

--- !WARNING
src_file: m_rhotoxc.F90
src_line: 473
message: |
    Note that no xc is applied (ixc=0).
...

 ETOT 16 -0.89629548383762    -4.805E-12 1.239E-13 1.138E-08
 scprqt: <Vxc>=  0.0000000E+00 hartree

 Pulay update with  7 previous iterations:
 mixing of old trial potential: alpha(m:m-4)=  0.901     -0.309      0.294     -0.102      0.998E-01
{SCF_istep: 16 , Vnl|psi>: 18 , wall_time: '  0.16 [s] '} <<< TIME

 ITER STEP NUMBER    17
 Total charge density [el/Bohr^3]
      Maximum=    1.1262E-01  at reduced coord.    0.8704    0.0000    0.0000
      Minimum=    0.0000E+00  at reduced coord.    0.5000    0.4815    0.3519
   Integrated=    2.0000E+00

--- !WARNING
src_file: m_rhotoxc.F90
src_line: 473
message: |
    Note that no xc is applied (ixc=0).
...

 ETOT 17 -0.89629548384130    -3.686E-12 1.390E-15 3.031E-09
 scprqt: <Vxc>=  0.0000000E+00 hartree

 Pulay update with  7 previous iterations:
 mixing of old trial potential: alpha(m:m-4)=   1.92      0.124      -1.44      0.158      0.688
{SCF_istep: 17 , Vnl|psi>: 18 , wall_time: '  0.16 [s] '} <<< TIME

 ITER STEP NUMBER    18
 Total charge density [el/Bohr^3]
      Maximum=    1.1262E-01  at reduced coord.    0.8704    0.0000    0.0000
      Minimum=    0.0000E+00  at reduced coord.    0.5000    0.4815    0.3519
   Integrated=    2.0000E+00

--- !WARNING
src_file: m_rhotoxc.F90
src_line: 473
message: |
    Note that no xc is applied (ixc=0).
...

 ETOT 18 -0.89629548384154    -2.354E-13 2.131E-15 1.381E-11
 scprqt: <Vxc>=  0.0000000E+00 hartree

 Pulay update with  7 previous iterations:
 mixing of old trial potential: alpha(m:m-4)=  0.499      0.418      0.182     -0.109     -0.934E-02
{SCF_istep: 18 , Vnl|psi>: 19 , wall_time: '  0.16 [s] '} <<< TIME

 ITER STEP NUMBER    19
 Total charge density [el/Bohr^3]
      Maximum=    1.1262E-01  at reduced coord.    0.8704    0.0000    0.0000
      Minimum=    0.0000E+00  at reduced coord.    0.5000    0.4815    0.3519
   Integrated=    2.0000E+00

--- !WARNING
src_file: m_rhotoxc.F90
src_line: 473
message: |
    Note that no xc is applied (ixc=0).
...

 ETOT 19 -0.89629548384167    -1.273E-13 7.637E-11 6.987E-13
 scprqt: <Vxc>=  0.0000000E+00 hartree

 At SCF step   19, etot is converged : 
  for the second time, diff in etot=  1.273E-13 < toldfe=  1.000E-12
 
 -------------------------------------------------------------------------------------------------
 Ekinetic   = :     6.109802E-01 Ha ,    1.662562E+01 eV
 Evext_l    = :    -1.531988E+00 Ha ,   -4.168751E+01 eV
 Evext_nl   = :     3.539020E-08 Ha ,    9.630163E-07 eV
 Epsp_core  = :     4.976241E-05 Ha ,    1.354104E-03 eV
 Ehartree   = :     4.770584E-01 Ha ,    1.298142E+01 eV
 Efock      = :    -3.997285E-01 Ha ,   -1.087716E+01 eV
 Exc_ks     = :     0.000000E+00 Ha ,    0.000000E+00 eV
 Enn        = :    -5.266759E-02 Ha ,   -1.433158E+00 eV
 -------------------------------------------------------------------------------------------------
 Etot       = :    -8.962955E-01 Ha ,   -2.438944E+01 eV
 -------------------------------------------------------------------------------------------------

 Cartesian components of stress tensor (hartree/bohr^3)
  sigma(1 1)=  1.01791434E-04  sigma(3 2)=  0.00000000E+00
  sigma(2 2)=  1.03758744E-05  sigma(3 1)=  0.00000000E+00
  sigma(3 3)=  1.03758744E-05  sigma(2 1)=  0.00000000E+00


 fftdatar_write: About to write data to: 0D_H2_o_DS2_DEN with iomode: IO_MODE_ETSF
- Creating HDf5 file with MPI-IO support: 0D_H2_o_DS2_DEN.nc
- Opening HDf5 file with MPI-IO support: 0D_H2_o_DS2_DEN.nc
 IO operation completed. cpu:  0.06 [s] , wall:  0.49 [s] <<< TIME
- Creating HDf5 file with MPI-IO support: 0D_H2_o_DS2_GSR.nc
 Integrated electronic density in atomic spheres:
 ------------------------------------------------
 Atom  Sphere_radius  Integrated_density
    1        2.00000          0.65531681
    2        2.00000          0.65531681
================================================================================

 ----iterations are completed or convergence reached----


 === Gap info ===
  >>>> For spin  1
   Minimum direct gap =   9.0657 [eV], located at k-point      :   0.0000  0.0000  0.0000
   Fundamental gap    =   9.0657 [eV], Top of valence bands at :   0.0000  0.0000  0.0000
                                       Bottom of conduction at :   0.0000  0.0000  0.0000
 Mean square residual over all n,k,spin=   19.093E-12; max=  76.371E-12
   0.0000  0.0000  0.0000    1  7.63707E-11 kpt; spin; max resid(k); each band:
  8.32E-16 3.62E-17 7.78E-16 7.64E-11
in cg_ncwrite with path: 0D_H2_o_DS2_WFK.nc
same layout Writing WFK file: 0D_H2_o_DS2_WFK.nc, with iomode: IO_MODE_ETSF, single writer: F
Using collective IO for the CGs
 collective ncwrite completed. cpu:  0.08 [s] , wall:  0.35 [s] <<< TIME
 prteigrs : about to open file 0D_H2_o_DS2_EIG
 Fermi (or HOMO) energy (hartree) =  -0.38317   Average Vxc (hartree)=   0.00000
 Eigenvalues (hartree) for nkpt=   1  k points:
 kpt#   1, nband=  4, wtk=  1.00000, kpt=  0.0000  0.0000  0.0000 (reduced coord)
  -0.38317   -0.05001    0.01673    0.08477
 Total charge density [el/Bohr^3]
      Maximum=    1.1262E-01  at reduced coord.    0.8704    0.0000    0.0000
 Next maximum=    1.1262E-01  at reduced coord.    0.1296    0.0000    0.0000
      Minimum=    0.0000E+00  at reduced coord.    0.5000    0.4815    0.3519
 Next minimum=    0.0000E+00  at reduced coord.    0.4815    0.5000    0.3519
   Integrated=    2.0000E+00

 Cartesian components of stress tensor (hartree/bohr^3)
  sigma(1 1)=  1.01791434E-04  sigma(3 2)=  0.00000000E+00
  sigma(2 2)=  1.03758744E-05  sigma(3 1)=  0.00000000E+00
  sigma(3 3)=  1.03758744E-05  sigma(2 1)=  0.00000000E+00

-Cartesian components of stress tensor (GPa)         [Pressure= -1.2018E+00 GPa]
- sigma(1 1)=  2.99480688E+00  sigma(3 2)=  0.00000000E+00
- sigma(2 2)=  3.05268713E-01  sigma(3 1)=  0.00000000E+00
- sigma(3 3)=  3.05268713E-01  sigma(2 1)=  0.00000000E+00

================================================================================
== DATASET  3 ==================================================================
-   mpi_nproc: 1, omp_nthreads: 1 (-1 if OMP is not activated)


--- !COMMENT
src_file: m_xgScalapack.F90
src_line: 236
message: |
    xgScalapack in auto mode
...

 mkfilename : getwfk/=0, take file _WFK from output of DATASET   2.

 mkfilename : getden/=0, take file _DEN from output of DATASET   2.


--- !COMMENT
src_file: m_memeval.F90
src_line: 2393
message: |
    Despite there is only a local part to pseudopotential(s),
    lmnmax and lnmax are set to 1.
...


 getdim_nloc : deduce lmnmax  =   1, lnmax  =   1,
                      lmnmaxso=   1, lnmaxso=   1.
 Exchange-correlation functional for the present dataset will be:
  Hartree-Fock with mixing coefficient alpha=1

 Unit cell volume ucvol=  3.3750000E+03 bohr^3
 Angles (23,13,12)=  9.00000000E+01  9.00000000E+01  9.00000000E+01 degrees

 getcut: wavevector=  0.0000  0.0000  0.0000  ngfft=  54  54  54
         ecut(hartree)=     14.000   => boxcut(ratio)=   2.13734
 symatm: atom number 1 is reached starting at atom
   1  2  2  1  2  1  1  2  1  2  2  1  2  1  1  2
 symatm: atom number 2 is reached starting at atom
   2  1  1  2  1  2  2  1  2  1  1  2  1  2  2  1
- File: 0D_H2_o_DS2_WFK does not exist but found netcdf file with similar name.
- Opening HDf5 file with MPI-IO support: 0D_H2_o_DS2_WFK.nc
 inwffil: examining the header of disk file: 0D_H2_o_DS2_WFK.nc

================================================================================

          - hdr_check: checking restart file header for consistency -


          current calculation                           restart file
          -------------------                           ------------

  calculation expects a wf_planewave        |  input file contains a wf_planewave
. ABINIT  code version 9.6.3                |  ABINIT  code version 9.6.3
. date 20230809 bantot       50 natom    2  |  date 20230809 bantot        4 natom    2
  nkpt       1 nsym 16 ngfft  54,  54,  54  |  nkpt       1 nsym 16 ngfft  54,  54,  54
  ntypat  1 ecut_eff  14.0000000            |  ntypat  1 ecut_eff  14.0000000
  usepaw  0                                 |  usepaw  0
  usewvl  0                                 |  usewvl  0
  rprimd:                                   |  rprimd:
    15.0000000   0.0000000   0.0000000      |    15.0000000   0.0000000   0.0000000
     0.0000000  15.0000000   0.0000000      |     0.0000000  15.0000000   0.0000000
     0.0000000   0.0000000  15.0000000      |     0.0000000   0.0000000  15.0000000
  nband:                                    |  nband:
    50                                      |     4

--- !WARNING
src_file: m_hdr.F90
src_line: 4281
message: |
    kpt num 1 input nband= 50 not equal disk file nband=4
...

  symafm:                                   |  symafm:
    1  1  1  1  1  1  1  1  1  1  1  1      |    1  1  1  1  1  1  1  1  1  1  1  1
    1  1  1  1                              |    1  1  1  1
  symrel:                                   |  symrel:
    1  0  0  0  1  0  0  0  1               |    1  0  0  0  1  0  0  0  1
   -1  0  0  0 -1  0  0  0 -1               |   -1  0  0  0 -1  0  0  0 -1
   -1  0  0  0  1  0  0  0 -1               |   -1  0  0  0  1  0  0  0 -1
    1  0  0  0 -1  0  0  0  1               |    1  0  0  0 -1  0  0  0  1
   -1  0  0  0 -1  0  0  0  1               |   -1  0  0  0 -1  0  0  0  1
    1  0  0  0  1  0  0  0 -1               |    1  0  0  0  1  0  0  0 -1
    1  0  0  0 -1  0  0  0 -1               |    1  0  0  0 -1  0  0  0 -1
   -1  0  0  0  1  0  0  0  1               |   -1  0  0  0  1  0  0  0  1
    1  0  0  0  0  1  0  1  0               |    1  0  0  0  0  1  0  1  0
   -1  0  0  0  0 -1  0 -1  0               |   -1  0  0  0  0 -1  0 -1  0
   -1  0  0  0  0  1  0 -1  0               |   -1  0  0  0  0  1  0 -1  0
    1  0  0  0  0 -1  0  1  0               |    1  0  0  0  0 -1  0  1  0
   -1  0  0  0  0 -1  0  1  0               |   -1  0  0  0  0 -1  0  1  0
    1  0  0  0  0  1  0 -1  0               |    1  0  0  0  0  1  0 -1  0
    1  0  0  0  0 -1  0 -1  0               |    1  0  0  0  0 -1  0 -1  0
   -1  0  0  0  0  1  0  1  0               |   -1  0  0  0  0  1  0  1  0
  typat:                                    |  typat:
    1  1                                    |    1  1
  so_psp  :                                 |  so_psp  :
    1                                       |    1
  istwfk:                                   |  istwfk:
    1                                       |    1

--- !WARNING
src_file: m_hdr.F90
src_line: 4441
message: |
    input ival=0 not equal disk file ival=1
...

  kpt:                                      |  kpt:
     0.0000000   0.0000000   0.0000000      |     0.0000000   0.0000000   0.0000000
  wtk:                                      |  wtk:
    1.000                                   |    1.000
  tnons:                                    |  tnons:
     0.0000000   0.0000000   0.0000000      |     0.0000000   0.0000000   0.0000000
     0.0000000   0.0000000   0.0000000      |     0.0000000   0.0000000   0.0000000
     0.0000000   0.0000000   0.0000000      |     0.0000000   0.0000000   0.0000000
     0.0000000   0.0000000   0.0000000      |     0.0000000   0.0000000   0.0000000
     0.0000000   0.0000000   0.0000000      |     0.0000000   0.0000000   0.0000000
     0.0000000   0.0000000   0.0000000      |     0.0000000   0.0000000   0.0000000
     0.0000000   0.0000000   0.0000000      |     0.0000000   0.0000000   0.0000000
     0.0000000   0.0000000   0.0000000      |     0.0000000   0.0000000   0.0000000
     0.0000000   0.0000000   0.0000000      |     0.0000000   0.0000000   0.0000000
     0.0000000   0.0000000   0.0000000      |     0.0000000   0.0000000   0.0000000
     0.0000000   0.0000000   0.0000000      |     0.0000000   0.0000000   0.0000000
     0.0000000   0.0000000   0.0000000      |     0.0000000   0.0000000   0.0000000
     0.0000000   0.0000000   0.0000000      |     0.0000000   0.0000000   0.0000000
     0.0000000   0.0000000   0.0000000      |     0.0000000   0.0000000   0.0000000
     0.0000000   0.0000000   0.0000000      |     0.0000000   0.0000000   0.0000000
     0.0000000   0.0000000   0.0000000      |     0.0000000   0.0000000   0.0000000
   znucl:                                   |   znucl:
    1.00                                    |        1.00
  pseudopotential atom type  1:             |  pseudopotential atom type  1:
  pspso   0 pspxc   1                       |  pspso   0 pspxc   1
  pspdat   940714 pspcod    1 zion   1.0    |  pspdat   940714 pspcod    1 zion   1.0
  xred:                                     |  xred:
    -0.1333333   0.0000000   0.0000000      |    -0.1333333   0.0000000   0.0000000
     0.1333333   0.0000000   0.0000000      |     0.1333333   0.0000000   0.0000000
 hdr_check:  Wavefunction file is OK for direct restart of calculation
================================================================================
-inwffil : will read wavefunctions from disk file 0D_H2_o_DS2_WFK.nc
 initwf: disk file gives npw= 8385 nband= 4 for kpt number= 1
 initwf: 4 bands have been initialized from disk
 wfconv:    46 bands initialized randomly with npw=  8385, for ikpt=     1
 About to read data(r) from: 0D_H2_o_DS2_DEN
- File: 0D_H2_o_DS2_DEN does not exist but found netcdf file with similar name.

================================================================================

          - hdr_check: checking restart file header for consistency -


          current calculation                           restart file
          -------------------                           ------------

  calculation expects a density             |  input file contains a density
. ABINIT  code version 9.6.3                |  ABINIT  code version 9.6.3
. date 20230809 bantot       50 natom    2  |  date 20230809 bantot        4 natom    2
  nkpt       1 nsym 16 ngfft  54,  54,  54  |  nkpt       1 nsym 16 ngfft  54,  54,  54
  ntypat  1 ecut_eff  14.0000000            |  ntypat  1 ecut_eff  14.0000000
  usepaw  0                                 |  usepaw  0
  usewvl  0                                 |  usewvl  0
  rprimd:                                   |  rprimd:
    15.0000000   0.0000000   0.0000000      |    15.0000000   0.0000000   0.0000000
     0.0000000  15.0000000   0.0000000      |     0.0000000  15.0000000   0.0000000
     0.0000000   0.0000000  15.0000000      |     0.0000000   0.0000000  15.0000000
  nband:                                    |  nband:
    50                                      |     4
  symafm:                                   |  symafm:
    1  1  1  1  1  1  1  1  1  1  1  1      |    1  1  1  1  1  1  1  1  1  1  1  1
    1  1  1  1                              |    1  1  1  1
  symrel:                                   |  symrel:
    1  0  0  0  1  0  0  0  1               |    1  0  0  0  1  0  0  0  1
   -1  0  0  0 -1  0  0  0 -1               |   -1  0  0  0 -1  0  0  0 -1
   -1  0  0  0  1  0  0  0 -1               |   -1  0  0  0  1  0  0  0 -1
    1  0  0  0 -1  0  0  0  1               |    1  0  0  0 -1  0  0  0  1
   -1  0  0  0 -1  0  0  0  1               |   -1  0  0  0 -1  0  0  0  1
    1  0  0  0  1  0  0  0 -1               |    1  0  0  0  1  0  0  0 -1
    1  0  0  0 -1  0  0  0 -1               |    1  0  0  0 -1  0  0  0 -1
   -1  0  0  0  1  0  0  0  1               |   -1  0  0  0  1  0  0  0  1
    1  0  0  0  0  1  0  1  0               |    1  0  0  0  0  1  0  1  0
   -1  0  0  0  0 -1  0 -1  0               |   -1  0  0  0  0 -1  0 -1  0
   -1  0  0  0  0  1  0 -1  0               |   -1  0  0  0  0  1  0 -1  0
    1  0  0  0  0 -1  0  1  0               |    1  0  0  0  0 -1  0  1  0
   -1  0  0  0  0 -1  0  1  0               |   -1  0  0  0  0 -1  0  1  0
    1  0  0  0  0  1  0 -1  0               |    1  0  0  0  0  1  0 -1  0
    1  0  0  0  0 -1  0 -1  0               |    1  0  0  0  0 -1  0 -1  0
   -1  0  0  0  0  1  0  1  0               |   -1  0  0  0  0  1  0  1  0
  typat:                                    |  typat:
    1  1                                    |    1  1
  so_psp  :                                 |  so_psp  :
    1                                       |    1
  istwfk:                                   |  istwfk:
    1                                       |    1

--- !WARNING
src_file: m_hdr.F90
src_line: 4441
message: |
    input ival=0 not equal disk file ival=1
...

  kpt:                                      |  kpt:
     0.0000000   0.0000000   0.0000000      |     0.0000000   0.0000000   0.0000000
  wtk:                                      |  wtk:
    1.000                                   |    1.000
  tnons:                                    |  tnons:
     0.0000000   0.0000000   0.0000000      |     0.0000000   0.0000000   0.0000000
     0.0000000   0.0000000   0.0000000      |     0.0000000   0.0000000   0.0000000
     0.0000000   0.0000000   0.0000000      |     0.0000000   0.0000000   0.0000000
     0.0000000   0.0000000   0.0000000      |     0.0000000   0.0000000   0.0000000
     0.0000000   0.0000000   0.0000000      |     0.0000000   0.0000000   0.0000000
     0.0000000   0.0000000   0.0000000      |     0.0000000   0.0000000   0.0000000
     0.0000000   0.0000000   0.0000000      |     0.0000000   0.0000000   0.0000000
     0.0000000   0.0000000   0.0000000      |     0.0000000   0.0000000   0.0000000
     0.0000000   0.0000000   0.0000000      |     0.0000000   0.0000000   0.0000000
     0.0000000   0.0000000   0.0000000      |     0.0000000   0.0000000   0.0000000
     0.0000000   0.0000000   0.0000000      |     0.0000000   0.0000000   0.0000000
     0.0000000   0.0000000   0.0000000      |     0.0000000   0.0000000   0.0000000
     0.0000000   0.0000000   0.0000000      |     0.0000000   0.0000000   0.0000000
     0.0000000   0.0000000   0.0000000      |     0.0000000   0.0000000   0.0000000
     0.0000000   0.0000000   0.0000000      |     0.0000000   0.0000000   0.0000000
     0.0000000   0.0000000   0.0000000      |     0.0000000   0.0000000   0.0000000
   znucl:                                   |   znucl:
    1.00                                    |        1.00
  pseudopotential atom type  1:             |  pseudopotential atom type  1:
  pspso   0 pspxc   1                       |  pspso   0 pspxc   1
  pspdat   940714 pspcod    1 zion   1.0    |  pspdat   940714 pspcod    1 zion   1.0
  xred:                                     |  xred:
    -0.1333333   0.0000000   0.0000000      |    -0.1333333   0.0000000   0.0000000
     0.1333333   0.0000000   0.0000000      |     0.1333333   0.0000000   0.0000000
 hdr_check:  Density/Potential file is OK for restart of calculation
================================================================================
 read_rhor completed. cpu:  0.01 [s] , wall:  0.01 [s] <<< TIME

================================================================================

 getcut: wavevector=  0.0000  0.0000  0.0000  ngfft=  54  54  54
         ecut(hartree)=     14.000   => boxcut(ratio)=   2.13734

Fock_init: initialization of Fock operator parameters:
 - The parameter nnsclohf is set to its default value 1.
 ==== Info on fock_type ====
 my_nsppol ... 1
 nkpt_bz ..... 1
 nnsclo_hf ....... 1
 ixc ............. 40
 hybrid mixing.... 1.000000E+00
 hybrid SR mixing 0.000000E+00
 hybrid range DFT 0.000000E+00
 hybrid range Fock 0.000000E+00

--- !WARNING
src_file: m_rhotoxc.F90
src_line: 473
message: |
    Note that no xc is applied (ixc=0).
...

 Max number of non-self-consistent loops: 3000
 k-point: [ 1 / 1 ], spin: 1
   Max resid = 5.45451E-02  (exclude nbdbuf bands). One NSCF iteration cpu-time:  1.63 [s] , wall-time:  1.63 [s]
   Max resid = 7.85305E-04  (exclude nbdbuf bands). One NSCF iteration cpu-time:  1.44 [s] , wall-time:  1.44 [s]
   Max resid = 2.57828E-04  (exclude nbdbuf bands). One NSCF iteration cpu-time:  1.30 [s] , wall-time:  1.30 [s]
   Printing residuals every mod(20) iterations...
   Max resid = 9.95598E-11  (exclude nbdbuf bands). One NSCF iteration cpu-time:  0.39 [s] , wall-time:  0.39 [s]
   NSCF loop completed after 20 iterations
 
 -------------------------------------------------------------------------------------------------
 Ekinetic   = :     0.000000E+00 Ha ,    0.000000E+00 eV
 Evext_l    = :     0.000000E+00 Ha ,    0.000000E+00 eV
 Evext_nl   = :     7.994568E-01 Ha ,    2.175433E+01 eV
 Epsp_core  = :     4.976241E-05 Ha ,    1.354104E-03 eV
 Ehartree   = :     0.000000E+00 Ha ,    0.000000E+00 eV
 Efock      = :    -3.997284E-01 Ha ,   -1.087716E+01 eV
 Exc_ks     = :     0.000000E+00 Ha ,    0.000000E+00 eV
 Enn        = :    -5.266759E-02 Ha ,   -1.433158E+00 eV
 -------------------------------------------------------------------------------------------------
 Etot       = :     3.471106E-01 Ha ,    9.445360E+00 eV
 -------------------------------------------------------------------------------------------------

 fftdatar_write: About to write data to: 0D_H2_o_DS3_DEN with iomode: IO_MODE_ETSF
- Creating HDf5 file with MPI-IO support: 0D_H2_o_DS3_DEN.nc
- Opening HDf5 file with MPI-IO support: 0D_H2_o_DS3_DEN.nc
 IO operation completed. cpu:  0.05 [s] , wall:  0.50 [s] <<< TIME
- Creating HDf5 file with MPI-IO support: 0D_H2_o_DS3_GSR.nc
 Integrated electronic density in atomic spheres:
 ------------------------------------------------
 Atom  Sphere_radius  Integrated_density
    1        2.00000          0.65531681
    2        2.00000          0.65531681
================================================================================

 ----iterations are completed or convergence reached----


 === Gap info ===
  >>>> For spin  1
   Minimum direct gap =   9.0657 [eV], located at k-point      :   0.0000  0.0000  0.0000
   Fundamental gap    =   9.0657 [eV], Top of valence bands at :   0.0000  0.0000  0.0000
                                       Bottom of conduction at :   0.0000  0.0000  0.0000
 Mean square residual over all n,k,spin=   32.834E-12; max=  99.560E-12
   0.0000  0.0000  0.0000    1  9.09493E-09 kpt; spin; max resid(k); each band:
  1.99E-15 4.88E-16 3.51E-17 6.67E-12 3.56E-12 3.34E-11 3.63E-12 1.18E-11
  2.02E-12 9.53E-12 5.60E-12 2.14E-12 4.98E-12 6.27E-12 7.28E-12 1.13E-11
  2.51E-12 3.59E-12 3.74E-12 9.61E-11 9.44E-11 3.90E-12 1.87E-12 8.57E-11
  6.21E-13 1.57E-12 1.37E-12 5.13E-12 4.40E-11 4.54E-11 2.25E-11 8.86E-12
  2.47E-11 2.41E-11 9.96E-11 5.70E-11 6.13E-11 5.22E-11 6.90E-11 3.94E-11
  5.27E-11 9.12E-11 9.25E-11 8.86E-11 8.59E-11 8.19E-11 7.57E-11 5.09E-11
  2.83E-10 9.09E-09
in cg_ncwrite with path: 0D_H2_o_DS3_WFK.nc
same layout Writing WFK file: 0D_H2_o_DS3_WFK.nc, with iomode: IO_MODE_ETSF, single writer: F
Using collective IO for the CGs
 collective ncwrite completed. cpu:  0.08 [s] , wall:  0.46 [s] <<< TIME
Writing KB form factors to: 0D_H2_o_DS3_WFK.nc
- Opening HDf5 file with MPI-IO support: 0D_H2_o_DS3_WFK.nc
 prteigrs : about to open file 0D_H2_o_DS3_EIG
 Eigenvalues (hartree) for nkpt=   1  k points:
 kpt#   1, nband= 50, wtk=  1.00000, kpt=  0.0000  0.0000  0.0000 (reduced coord)
  -0.38317   -0.05001    0.01673    0.08215    0.08380    0.08478    0.08511    0.11236
   0.13487    0.16990    0.16994    0.17055    0.17472    0.17476    0.17490    0.17786
   0.17794    0.17805    0.17933    0.22883    0.25168    0.26126    0.26130    0.26231
   0.26235    0.26580    0.26736    0.28933    0.30312    0.34478    0.34751    0.34766
   0.34945    0.37950    0.39642    0.42031    0.42522    0.42792    0.43071    0.43074
   0.43095    0.43286    0.43421    0.43435    0.43478    0.43490    0.43621    0.43625
   0.43755    0.44021
 Total charge density [el/Bohr^3]
      Maximum=    1.1262E-01  at reduced coord.    0.8704    0.0000    0.0000
 Next maximum=    1.1262E-01  at reduced coord.    0.1296    0.0000    0.0000
      Minimum=    0.0000E+00  at reduced coord.    0.5000    0.4815    0.3519
 Next minimum=    0.0000E+00  at reduced coord.    0.4815    0.5000    0.3519
   Integrated=    2.0000E+00

== END DATASET(S) ==============================================================
================================================================================
  
 -outvars: echo values of variables after computation  --------
 
 These variables are accessible in NetCDF format (0D_H2_o_OUT.nc)

-          iomode           3
            acell      1.5000000000E+01  1.5000000000E+01  1.5000000000E+01 Bohr
              amu      1.00794000E+00
           diemac      2.00000000E+00
             ecut      1.40000000E+01 Hartree
          ecuteps1     0.00000000E+00 Hartree
          ecuteps2     2.00000000E+00 Hartree
          ecuteps3     2.00000000E+00 Hartree
         ecutsigx1     0.00000000E+00 Hartree
         ecutsigx2     1.40000000E+01 Hartree
         ecutsigx3     1.40000000E+01 Hartree
          ecutwfn1     0.00000000E+00 Hartree
          ecutwfn2     1.40000000E+01 Hartree
          ecutwfn3     1.40000000E+01 Hartree
           etotal1    -9.6356671684E-01
           etotal2    -8.9629548384E-01
            fcart1     4.4928190112E-02 -0.0000000000E+00 -0.0000000000E+00
                      -4.4928190112E-02 -0.0000000000E+00 -0.0000000000E+00
            fcart2     6.5417121682E-02 -0.0000000000E+00 -0.0000000000E+00
                      -6.5417121682E-02 -0.0000000000E+00 -0.0000000000E+00
-          fftalg         112
           getden1          0
           getden2          0
           getden3          2
           getwfk1          0
           getwfk2          1
           getwfk3          2
         icutcoul1          3
         icutcoul2          0
         icutcoul3          0
             iscf1          3
             iscf2          7
             iscf3         -2
           istwfk1       2
           istwfk2       1
           istwfk3       1
              ixc1          1
              ixc2         40
              ixc3         40
           jdtset        1    2    3
         kptns_hf2     0.00000000E+00  0.00000000E+00  0.00000000E+00
         kptns_hf3     0.00000000E+00  0.00000000E+00  0.00000000E+00
         kptrlatt        1    0    0      0    1    0      0    0    1
          kptrlen      1.50000000E+04
P           mkmem           1
            natom           2
            nband1          4
            nband2          4
            nband3         50
          nbandhf           1
           nbdbuf1          0
           nbdbuf2          0
           nbdbuf3          2
           ndtset           3
            ngfft          54      54      54
             nkpt           1
           nkpthf           1
            nstep1       1000
            nstep2         30
            nstep3       3000
             nsym          16
           ntypat           1
              occ      2.000000  0.000000  0.000000  0.000000
          prtkbff1          0
          prtkbff2          0
          prtkbff3          1
          spgroup         123
           strten1     5.4682561023E-05  4.6853261801E-07  4.6853261801E-07
                       0.0000000000E+00  0.0000000000E+00  0.0000000000E+00
           strten2     1.0179143395E-04  1.0375874405E-05  1.0375874405E-05
                       0.0000000000E+00  0.0000000000E+00  0.0000000000E+00
        symmorphi1          1
        symmorphi2          1
        symmorphi3          0
           symrel      1  0  0   0  1  0   0  0  1      -1  0  0   0 -1  0   0  0 -1
                      -1  0  0   0  1  0   0  0 -1       1  0  0   0 -1  0   0  0  1
                      -1  0  0   0 -1  0   0  0  1       1  0  0   0  1  0   0  0 -1
                       1  0  0   0 -1  0   0  0 -1      -1  0  0   0  1  0   0  0  1
                       1  0  0   0  0  1   0  1  0      -1  0  0   0  0 -1   0 -1  0
                      -1  0  0   0  0  1   0 -1  0       1  0  0   0  0 -1   0  1  0
                      -1  0  0   0  0 -1   0  1  0       1  0  0   0  0  1   0 -1  0
                       1  0  0   0  0 -1   0 -1  0      -1  0  0   0  0  1   0  1  0
           toldfe1     1.00000000E-12 Hartree
           toldfe2     1.00000000E-12 Hartree
           toldfe3     0.00000000E+00 Hartree
           tolwfr1     0.00000000E+00
           tolwfr2     0.00000000E+00
           tolwfr3     1.00000000E-10
            typat      1  1
          usefock1          0
          usefock2          1
          usefock3          1
           xangst     -1.0583544172E+00  0.0000000000E+00  0.0000000000E+00
                       1.0583544172E+00  0.0000000000E+00  0.0000000000E+00
            xcart     -2.0000000000E+00  0.0000000000E+00  0.0000000000E+00
                       2.0000000000E+00  0.0000000000E+00  0.0000000000E+00
             xred     -1.3333333333E-01  0.0000000000E+00  0.0000000000E+00
                       1.3333333333E-01  0.0000000000E+00  0.0000000000E+00
            znucl        1.00000

================================================================================
  

================================================================================

 Suggested references for the acknowledgment of ABINIT usage.

 The users of ABINIT have little formal obligations with respect to the ABINIT group
 (those specified in the GNU General Public License, http://www.gnu.org/copyleft/gpl.txt).
 However, it is common practice in the scientific literature,
 to acknowledge the efforts of people that have made the research possible.
 In this spirit, please find below suggested citations of work written by ABINIT developers,
 corresponding to implementations inside of ABINIT that you have used in the present run.
 Note also that it will be of great value to readers of publications presenting these results,
 to read papers enabling them to understand the theoretical formalism and details
 of the ABINIT implementation.
 For information on why they are suggested, see also https://docs.abinit.org/theory/acknowledgments.
-
- [1] Specification of an extensible and portable file format for electronic structure and crystallographic data
- X. Gonze, C.-O. Almbladh, A. Cucca, D. Caliste, C. Freysoldt, M. Marques, V. Olevano, Y. Pouillon, M.J. Verstraete,
- Comput. Material Science 43, 1056 (2008).
- Comment: to be cited in case the ETSF_IO file format is used, i.e. iomode=3.
- DOI and bibtex: see https://docs.abinit.org/theory/bibliography/#gonze2008
-
- [2] The Abinit project: Impact, environment and recent developments.
- Computer Phys. Comm. 248, 107042 (2020).
- X.Gonze, B. Amadon, G. Antonius, F.Arnardi, L.Baguet, J.-M.Beuken,
- J.Bieder, F.Bottin, J.Bouchet, E.Bousquet, N.Brouwer, F.Bruneval,
- G.Brunin, T.Cavignac, J.-B. Charraud, Wei Chen, M.Cote, S.Cottenier,
- J.Denier, G.Geneste, Ph.Ghosez, M.Giantomassi, Y.Gillet, O.Gingras,
- D.R.Hamann, G.Hautier, Xu He, N.Helbig, N.Holzwarth, Y.Jia, F.Jollet,
- W.Lafargue-Dit-Hauret, K.Lejaeghere, M.A.L.Marques, A.Martin, C.Martins,
- H.P.C. Miranda, F.Naccarato, K. Persson, G.Petretto, V.Planes, Y.Pouillon,
- S.Prokhorenko, F.Ricci, G.-M.Rignanese, A.H.Romero, M.M.Schmitt, M.Torrent,
- M.J.van Setten, B.Van Troeye, M.J.Verstraete, G.Zerah and J.W.Zwanzig
- Comment: the fifth generic paper describing the ABINIT project.
- Note that a version of this paper, that is not formatted for Computer Phys. Comm. 
- is available at https://www.abinit.org/sites/default/files/ABINIT20.pdf .
- The licence allows the authors to put it on the Web.
- DOI and bibtex: see https://docs.abinit.org/theory/bibliography/#gonze2020
-
- [3] ABINIT: Overview, and focus on selected capabilities
- J. Chem. Phys. 152, 124102 (2020).
- A. Romero, D.C. Allan, B. Amadon, G. Antonius, T. Applencourt, L.Baguet,
- J.Bieder, F.Bottin, J.Bouchet, E.Bousquet, F.Bruneval,
- G.Brunin, D.Caliste, M.Cote,
- J.Denier, C. Dreyer, Ph.Ghosez, M.Giantomassi, Y.Gillet, O.Gingras,
- D.R.Hamann, G.Hautier, F.Jollet, G. Jomard,
- A.Martin, 
- H.P.C. Miranda, F.Naccarato, G.Petretto, N.A. Pike, V.Planes,
- S.Prokhorenko, T. Rangel, F.Ricci, G.-M.Rignanese, M.Royo, M.Stengel, M.Torrent,
- M.J.van Setten, B.Van Troeye, M.J.Verstraete, J.Wiktor, J.W.Zwanziger, and X.Gonze.
- Comment: a global overview of ABINIT, with focus on selected capabilities .
- Note that a version of this paper, that is not formatted for J. Chem. Phys 
- is available at https://www.abinit.org/sites/default/files/ABINIT20_JPC.pdf .
- The licence allows the authors to put it on the Web.
- DOI and bibtex: see https://docs.abinit.org/theory/bibliography/#romero2020
-
- [4] Recent developments in the ABINIT software package.
- Computer Phys. Comm. 205, 106 (2016).
- X.Gonze, F.Jollet, F.Abreu Araujo, D.Adams, B.Amadon, T.Applencourt,
- C.Audouze, J.-M.Beuken, J.Bieder, A.Bokhanchuk, E.Bousquet, F.Bruneval
- D.Caliste, M.Cote, F.Dahm, F.Da Pieve, M.Delaveau, M.Di Gennaro,
- B.Dorado, C.Espejo, G.Geneste, L.Genovese, A.Gerossier, M.Giantomassi,
- Y.Gillet, D.R.Hamann, L.He, G.Jomard, J.Laflamme Janssen, S.Le Roux,
- A.Levitt, A.Lherbier, F.Liu, I.Lukacevic, A.Martin, C.Martins,
- M.J.T.Oliveira, S.Ponce, Y.Pouillon, T.Rangel, G.-M.Rignanese,
- A.H.Romero, B.Rousseau, O.Rubel, A.A.Shukri, M.Stankovski, M.Torrent,
- M.J.Van Setten, B.Van Troeye, M.J.Verstraete, D.Waroquier, J.Wiktor,
- B.Xu, A.Zhou, J.W.Zwanziger.
- Comment: the fourth generic paper describing the ABINIT project.
- Note that a version of this paper, that is not formatted for Computer Phys. Comm. 
- is available at https://www.abinit.org/sites/default/files/ABINIT16.pdf .
- The licence allows the authors to put it on the Web.
- DOI and bibtex: see https://docs.abinit.org/theory/bibliography/#gonze2016
-
- And optionally:
-
- [5] ABINIT: First-principles approach of materials and nanosystem properties.
- Computer Phys. Comm. 180, 2582-2615 (2009).
- X. Gonze, B. Amadon, P.-M. Anglade, J.-M. Beuken, F. Bottin, P. Boulanger, F. Bruneval,
- D. Caliste, R. Caracas, M. Cote, T. Deutsch, L. Genovese, Ph. Ghosez, M. Giantomassi
- S. Goedecker, D.R. Hamann, P. Hermet, F. Jollet, G. Jomard, S. Leroux, M. Mancini, S. Mazevet,
- M.J.T. Oliveira, G. Onida, Y. Pouillon, T. Rangel, G.-M. Rignanese, D. Sangalli, R. Shaltaf,
- M. Torrent, M.J. Verstraete, G. Zerah, J.W. Zwanziger
- Comment: the third generic paper describing the ABINIT project.
- Note that a version of this paper, that is not formatted for Computer Phys. Comm. 
- is available at https://www.abinit.org/sites/default/files/ABINIT_CPC_v10.pdf .
- The licence allows the authors to put it on the Web.
- DOI and bibtex: see https://docs.abinit.org/theory/bibliography/#gonze2009
 Proc.   0 individual time (sec): cpu=         20.5  wall=         24.1

 Calculation completed.
.Delivered  27 WARNINGs and  15 COMMENTs to log file.

--- !FinalSummary
program: abinit
version: 9.6.3
start_datetime: Wed Aug 09 16:10:35 2023
end_datetime: Wed Aug 09 16:10:59 2023
overall_cpu_time:          20.5
overall_wall_time:          24.1
exit_requested_by_user: no 
timelimit: 0
pseudos: 
    H   : eb3a1fb3ac49f520fd87c87e3deb9929
usepaw: 0
mpi_procs: 1
omp_threads: 1
num_warnings: 27
num_comments: 15
...
