  ABINIT 
  
  Give name for formatted input file: 
input/MoS2_single-layer_nscf.in
  Give name for formatted output file:
reference_output/MoS2_single-layer_nscf.out
  Give root name for generic input files:
io_files/MoS2_single-layer_scf_o
  Give root name for generic output files:
io_files/MoS2_single-layer_nscf_o
  Give root name for generic temporary files:
io_files/MoS2_single-layer_scf_tmp

.Version 7.4.1 of ABINIT 
.(MPI version, prepared for a x86_64_linux_gnu4.8 computer) 

.Copyright (C) 1998-2013 ABINIT group . 
 ABINIT comes with ABSOLUTELY NO WARRANTY.
 It is free software, and you are welcome to redistribute it
 under certain conditions (GNU General Public License,
 see ~abinit/COPYING or http://www.gnu.org/copyleft/gpl.txt).

 ABINIT is a project of the Universite Catholique de Louvain,
 Corning Inc. and other collaborators, see ~abinit/doc/developers/contributors.txt .
 Please read ~abinit/doc/users/acknowledgments.html for suggested
 acknowledgments of the ABINIT effort.
 For more information, see http://www.abinit.org .

.Starting date : Sun 19 Jul 2015.
- ( at 14h34 )
  

 ++++++++++++++++++++++++++++++++++++++++++++++++++++++++++++++++++++++++++++++

 === Build Information === 
  Version       : 7.4.1
  Build target  : x86_64_linux_gnu4.8
  Build date    : 20150508

 === Compiler Suite === 
  C compiler       : gnu4.8
  CFLAGS           :  -g -O2 -mtune=native -march=native
  C++ compiler     : gnu4.8
  CXXFLAGS         :  -g -O2 -mtune=native -march=native
  Fortran compiler : gnu4.8
  FCFLAGS          :  -g -ffree-line-length-none
  FC_LDFLAGS       : 

 === Optimizations === 
  Debug level        : basic
  Optimization level : standard
  Architecture       : unknown_unknown

 === MPI === 
  Parallel build : yes
  Parallel I/O   : auto
  Time tracing   : no
  GPU support    : no

 === Connectors / Fallbacks === 
  Connectors on : yes
  Fallbacks on  : yes
  DFT flavor    : none
  FFT flavor    : none
  LINALG flavor : netlib
  MATH flavor   : none
  TIMER flavor  : abinit
  TRIO flavor   : none

 === Experimental features === 
  Bindings            : no
  Exports             : no
  GW double-precision : no

 ++++++++++++++++++++++++++++++++++++++++++++++++++++++++++++++++++++++++++++++


 ++++++++++++++++++++++++++++++++++++++++++++++++++++++++++++++++++++++++++++++
 Default optimizations:
   -O2 -mtune=native -march=native


 ++++++++++++++++++++++++++++++++++++++++++++++++++++++++++++++++++++++++++++++


 ++++++++++++++++++++++++++++++++++++++++++++++++++++++++++++++++++++++++++++++
 CPP options activated during the build:

                    CC_GNU                    FC_GNU HAVE_FC_ALLOCATABLE_DT...

      HAVE_FC_COMMAND_LINE        HAVE_FC_CONTIGUOUS           HAVE_FC_CPUTIME

              HAVE_FC_EXIT             HAVE_FC_FLUSH             HAVE_FC_GAMMA

            HAVE_FC_GETENV          HAVE_FC_INT_QUAD             HAVE_FC_IOMSG

     HAVE_FC_ISO_C_BINDING        HAVE_FC_LONG_LINES              HAVE_FC_NULL

         HAVE_FC_STREAM_IO          HAVE_FORTRAN2003               HAVE_LINALG

        HAVE_LINALG_SERIAL                  HAVE_MPI                 HAVE_MPI2

               HAVE_MPI_IO HAVE_MPI_TYPE_CREATE_S...             HAVE_OS_LINUX

                HAVE_TIMER         HAVE_TIMER_ABINIT            HAVE_TIMER_MPI

         HAVE_TIMER_SERIAL
 ++++++++++++++++++++++++++++++++++++++++++++++++++++++++++++++++++++++++++++++

- input  file    -> input/MoS2_single-layer_nscf.in
- output file    -> reference_output/MoS2_single-layer_nscf.out
- root for input  files -> io_files/MoS2_single-layer_scf_o
- root for output files -> io_files/MoS2_single-layer_nscf_o

-instrng :    41 lines of input have been read from file input/MoS2_single-layer_nscf.in


 iofn2 : Please give name of formatted atomic psp file
 iofn2 : for atom type   1 , psp file is 42mo.14.hgh

 iofn2 : Please give name of formatted atomic psp file
 iofn2 : for atom type   2 , psp file is 16s.6.hgh
  read the values zionpsp= 14.0 , pspcod=   3 , lmax=   2
  read the values zionpsp=  6.0 , pspcod=   3 , lmax=   1

 inpspheads : deduce mpsang  =   3, n1xccc  =   0.

 invars1m : enter jdtset=     0
 invars1 : treat image number     1

 symlatt : the Bravais lattice is hP (primitive hexagonal)
  xcart  is defined in input file
 ingeo : takes atomic coordinates from input array xcart

 symlatt : the Bravais lattice is hP (primitive hexagonal)

 symlatt : the Bravais lattice is hP (primitive hexagonal)
 symspgr : the symmetry operation no.   1 is the identity
 symaxes : the symmetry operation no.   2 is a tertiary 2-axis
 symspgr : the symmetry operation no.   3 is a -6 axis
 symplanes : the symmetry operation no.   4 is a secondary m plane
 symaxes : the symmetry operation no.   5 is a 3-axis
 symaxes : the symmetry operation no.   6 is a tertiary 2-axis
 symplanes : the symmetry operation no.   7 is a primary m plane
 symplanes : the symmetry operation no.   8 is a secondary m plane
 symaxes : the symmetry operation no.   9 is a 3-axis
 symaxes : the symmetry operation no.  10 is a tertiary 2-axis
 symspgr : the symmetry operation no.  11 is a -6 axis
 symplanes : the symmetry operation no.  12 is a secondary m plane
 symspgr : spgroup= 187  P-6 m 2   (=D3h^1)
 getkgrid : length of smallest supercell vector (bohr)=    3.552229E+01
       Simple Lattice Grid
 symkpt : found identity, with number  1
 getkgrid : length of smallest supercell vector (bohr)=    3.552229E+01
       Simple Lattice Grid
 symkpt : found identity, with number  1
  dtset%nelect=   26.000000000000000     
 chkneu : initialized the occupation numbers for occopt=    1
    spin-unpolarized case :
  1.00  1.00  1.00  1.00  1.00  1.00  1.00  1.00  1.00  1.00  1.00  1.00
  1.00  1.00  1.00  1.00  1.00  1.00  1.00  1.00  1.00  1.00  1.00  1.00
  1.00  1.00  0.00  0.00  0.00  0.00  0.00  0.00
  mpi_setup : enter 

 mpi_setup : WARNING -
 For non ground state calculation, set bandpp, npfft, npband, npspinor and npkpt to 1
 mpi_setup1: mkmem  undefined in the input file. Use default mkmem  = nkpt
 mpi_setup1: With nkpt_me=    7 and mkmem  =     7, ground state wf handled in core.
 mpi_setup1: mkqmem undefined in the input file. Use default mkqmem = nkpt
 mpi_setup1: With nkpt_me=    7 and mkqmem =     7, ground state wf handled in core.
 mpi_setup1: mk1mem undefined in the input file. Use default mk1mem = nkpt
 mpi_setup1: With nkpt_me=    7 and mk1mem =     7, ground state wf handled in core.

 getng.F90:200:WARNING
   The second and third dimension of the FFT grid,    0    0  were imposed to be multiple of the number of processors for the FFT,    1
 For input ecut=  1.500000E+01 best grid ngfft=      24      24     108
       max ecut=  1.598876E+01

 ==== FFT mesh ====
  FFT mesh divisions ........................    24   24  108
  Augmented FFT divisions ...................    25   25  108
  FFT algorithm .............................   112
  FFT cache size ............................    16
 getmpw: optimal value of mpw=    2541

 Symmetries : space group P-6 m 2 (#187); Bravais hP (primitive hexag.)

 getdim_nloc : deduce lmnmax  =  18, lnmax  =   6,
                      lmnmaxso=  34, lnmaxso=  10.
 setmqgrid : COMMENT -
  The number of points "mqgrid" in reciprocal space used for the
  description of the pseudopotentials has been set automatically
  by abinit to :     5231.
 memory : analysis of memory needs
================================================================================
 Values of the parameters that define the memory need of the present run
   intxc =         0  ionmov =         0    iscf =        -2 xclevel =         1
  lmnmax =        10   lnmax =        10   mband =        32  mffmem =         1
P  mgfft =       108   mkmem =         7 mpssoang=         5     mpw =      2541
  mqgrid =      5231   natom =         3    nfft =     62208    nkpt =         7
  nloalg =         4  nspden =         1 nspinor =         2  nsppol =         1
    nsym =        12  n1xccc =         0  ntypat =         2  occopt =         1
================================================================================
P This job should need less than                      30.685 Mbytes of memory.
  Rough estimation (10% accuracy) of disk space for files :
_ WF disk file :      8.687 Mbytes ; DEN or POT disk file :      0.477 Mbytes.
================================================================================

 Biggest array : cg(disk), with      8.6871 MBytes.
 memana : allocated an array of      8.687 Mbytes, for testing purposes.
 memana : allocated      30.685 Mbytes, for testing purposes.
 The job will continue.
--------------------------------------------------------------------------------
------------- Echo of variables that govern the present computation ------------
--------------------------------------------------------------------------------
-
- outvars: echo of selected default values                                      
-   accesswff0 =  0 , fftalg0 =112 , wfoptalg0 =  0
-
- outvars: echo of global parameters not present in the input file              
-  max_nthreads =    0
-
 -outvars: echo values of preprocessed input variables --------
            acell      5.9203808995E+00  5.9203808994E+00  3.0000000000E+01 Bohr
              amu      9.59400000E+01  3.20660000E+01
           diemac      4.50000000E+00
             ecut      1.50000000E+01 Hartree
           irdden           1
             iscf          -2
           istwfk        1    0    0    1    0    0    0
              kpt      0.00000000E+00  0.00000000E+00  0.00000000E+00
                       1.66666667E-01  0.00000000E+00  0.00000000E+00
                       3.33333333E-01  0.00000000E+00  0.00000000E+00
                       5.00000000E-01  0.00000000E+00  0.00000000E+00
                       1.66666667E-01  1.66666667E-01  0.00000000E+00
                       3.33333333E-01  1.66666667E-01  0.00000000E+00
                       3.33333333E-01  3.33333333E-01  0.00000000E+00
         kptrlatt        6    0    0      0    6    0      0    0    1
          kptrlen      3.55222854E+01
          kssform           3
P           mkmem           7
            natom           3
            nband          32
         nbandkss          32
           nbdbuf           4
            ngfft          24      24     108
             nkpt           7
          nspinor           2
            nstep         100
             nsym          12
           ntypat           2
           prtvol           3
            rprim      1.0000000000E+00  0.0000000000E+00  0.0000000000E+00
                      -5.0000000000E-01  8.6602540378E-01  0.0000000000E+00
                       0.0000000000E+00  0.0000000000E+00  1.0000000000E+00
           so_psp           2       2
          spgroup         187
        symmorphi           0
           symrel      1  0  0   0  1  0   0  0  1       0 -1  0  -1  0  0   0  0 -1
                      -1 -1  0   1  0  0   0  0 -1      -1  0  0   1  1  0   0  0  1
                       0  1  0  -1 -1  0   0  0  1       1  1  0   0 -1  0   0  0 -1
                       1  0  0   0  1  0   0  0 -1       0 -1  0  -1  0  0   0  0  1
                      -1 -1  0   1  0  0   0  0  1      -1  0  0   1  1  0   0  0 -1
                       0  1  0  -1 -1  0   0  0 -1       1  1  0   0 -1  0   0  0  1
           tolwfr      1.00000000E-16
            typat      1  2  2
              wtk        0.02778    0.16667    0.16667    0.08333    0.16667    0.33333
                         0.05556
           xangst     -2.5183365611E-28  4.0793329699E-28  4.4712094400E-21
                       1.5664653191E+00  9.0439917365E-01  1.5521205663E+00
                       1.5664653191E+00  9.0439917365E-01 -1.5521205663E+00
            xcart     -4.7589664109E-28  7.7088221179E-28  8.4493613244E-21
                       2.9601904497E+00  1.7090667530E+00  2.9330827955E+00
                       2.9601904497E+00  1.7090667530E+00 -2.9330827955E+00
             xred     -5.2070279127E-30  1.5035149260E-28  2.8164537748E-22
                       6.6666666666E-01  3.3333333334E-01  9.7769426517E-02
                       6.6666666666E-01  3.3333333334E-01 -9.7769426517E-02
            znucl       42.00000   16.00000

================================================================================

 chkinp: machine precision is   2.2204460492503131E-16

 chkinp: Checking input parameters for consistency.
 Checking if input is consistent with KSS generation
 DATA TYPE INFORMATION: 
 REAL:      Data type name: REAL(DP) 
            Kind value:      8
            Precision:      15
            Smallest nonnegligible quantity relative to 1:  0.22204460E-15
            Smallest positive number:                       0.22250739-307
            Largest representable number:                   0.17976931+309
 INTEGER:   Data type name: INTEGER(default) 
            Kind value: 4
            Bit size:   32
            Largest representable number: 2147483647
 LOGICAL:   Data type name: LOGICAL 
            Kind value: 4
 CHARACTER: Data type name: CHARACTER             Kind value: 1
 ==== OpenMP parallelism is OFF ====
 
  ==== Using MPI-2 specifications ==== 
  MPI-IO support is ON
  xmpi_tag_ub ................   2147483647
  xmpi_bsize_ch ..............            1
  xmpi_bsize_int .............            4
  xmpi_bsize_sp ..............            4
  xmpi_bsize_dp ..............            8
  xmpi_bsize_spc .............            8
  xmpi_bsize_dpc .............           16
  xmpio_bsize_frm ............            4
  xmpi_address_kind ..........            8
  xmpi_offset_kind ...........            8
  MPI_WTICK ..................    9.9999999999999995E-007

================================================================================
== DATASET  1 ==================================================================
-   nproc =    1

 setmqgrid : COMMENT -
  The number of points "mqgrid" in reciprocal space used for the
  description of the pseudopotentials has been set automatically
  by abinit to :     5231.

 getdim_nloc : deduce lmnmax  =  18, lnmax  =   6,
                      lmnmaxso=  34, lnmaxso=  10.
 Exchange-correlation functional for the present dataset will be:
  LDA: new Teter (4/93) with spin-polarized option - ixc=1
 Citation for XC functional:
  S. Goedecker, M. Teter, J. Huetter, PRB 54, 1703 (1996)

 Unit cell volume ucvol=  9.1064935E+02 bohr^3
 Angles (23,13,12)=  9.00000000E+01  9.00000000E+01  1.20000000E+02 degrees

 getcut: wavevector=  0.0000  0.0000  0.0000  ngfft=  24  24 108
         ecut(hartree)=     15.000   => boxcut(ratio)=   2.06487
- pspini: atom type   1  psp file is 42mo.14.hgh
- pspatm: opening atomic psp file    42mo.14.hgh
- Hartwigsen-Goedecker-Hutter psp for Mo,  from PRB58, 3641 (1998)
- 42.00000  14.00000     10605                znucl, zion, pspdat
    3    1    2    0      2001   0.00000      pspcod,pspxc,lmax,lloc,mmax,r2well
 rloc=   0.4300000
 cc1 =  16.2374520; cc2 =   1.4965360; cc3 =   0.0000000; cc4 =   0.0000000
 rrs =   0.3762550; h11s=   3.3624260; h22s=  -5.2892760; h33s=   0.0000000
 rrp =   0.3617340; h11p=  -0.3795710; h22p=  -4.0677130; h33p=   0.0000000
                    k11p=   0.3786810; k22p=  -0.1245610; k33p=   0.0000000
 rrd =   0.5258280; h11d=  -1.5432110; h22d=   1.0743880; h33d=   0.0000000
                    k11d=   0.0144600; k22d=  -0.0147690; k33d=   0.0000000
-  Local part computed in reciprocal space.

 pspatm : COMMENT -
  the projectors are not normalized,
  so that the KB energies are not consistent with 
  definition in PRB44, 8503 (1991). 
  However, this does not influence the results obtained hereafter.
 pspatm: epsatm=   42.21916586
         --- l  ekb(1:nproj) -->
             0   -1.085688    0.721857
             1   -0.208345    0.013056
             2   -0.256316    0.182427
  spin-orbit 1   -0.005709    0.016868
  spin-orbit 2   -0.002546    0.002497
 pspatm: atomic psp has been read  and splines computed

- pspini: atom type   2  psp file is 16s.6.hgh
- pspatm: opening atomic psp file    16s.6.hgh
- Hartwigsen-Goedecker-Hutter psp for S,  from PRB58, 3641 (1998)
- 16.00000   6.00000     10605                znucl, zion, pspdat
    3    1    1    0      2001   0.00000      pspcod,pspxc,lmax,lloc,mmax,r2well
 rloc=   0.4200000
 cc1 =  -6.5544920; cc2 =   0.0000000; cc3 =   0.0000000; cc4 =   0.0000000
 rrs =   0.3617570; h11s=   7.9053030; h22s=   4.4716980; h33s=   0.0000000
 rrp =   0.4052850; h11p=   3.8665790; h22p=   0.0000000; h33p=   0.0000000
                    k11p=   0.0053720; k22p=   0.0220620; k33p=   0.0000000
-  Local part computed in reciprocal space.

 pspatm : COMMENT -
  the projectors are not normalized,
  so that the KB energies are not consistent with 
  definition in PRB44, 8503 (1991). 
  However, this does not influence the results obtained hereafter.
 pspatm: epsatm=   -0.99803221
         --- l  ekb(1:nproj) -->
             0    0.629324    1.447842
             1    0.299754
 pspatm: atomic psp has been read  and splines computed

   1.04580064E+03                                ecore*ucvol(ha*bohr**3)
   1  1  1  1  1  1  1  1  1  1  1  1
   2  3  3  2  2  3  3  2  2  3  3  2
   3  2  2  3  3  2  2  3  3  2  2  3
 wfconv:    32 bands initialized randomly with npw=  2525, for ikpt=     1
 wfconv:    32 bands initialized randomly with npw=  2501, for ikpt=     2
 wfconv:    32 bands initialized randomly with npw=  2541, for ikpt=     3
 wfconv:    32 bands initialized randomly with npw=  2530, for ikpt=     4
 wfconv:    32 bands initialized randomly with npw=  2521, for ikpt=     5
 wfconv:    32 bands initialized randomly with npw=  2532, for ikpt=     6
 wfconv:    32 bands initialized randomly with npw=  2529, for ikpt=     7

 ioarr: reading density data
ioarr: file name is io_files/MoS2_single-layer_scf_o_DEN

================================================================================

          - hdr_check: checking restart file header for consistency -


        current calculation                         restart file
        -------------------                         ------------

  calculation expects a density         |  input file contains a density
. ABINIT  code version 7.4.1            |  ABINIT  code version 7.4.1
. date 20150719 bantot  224 natom    3  |  date 20150719 bantot  196 natom    3
  nkpt   7 nsym 12 ngfft  24,  24, 108  |  nkpt   7 nsym 12 ngfft  24,  24, 108
  ntypat  2 ecut_eff  15.0000000        |  ntypat  2 ecut_eff  15.0000000
  usepaw  0                             |  usepaw  0
  usewvl  0                             |  usewvl  0
  rprimd:                               |  rprimd:
     5.9203809   0.0000000   0.0000000  |     5.9203809   0.0000000   0.0000000
    -2.9601904   5.1272003   0.0000000  |    -2.9601904   5.1272003   0.0000000
     0.0000000   0.0000000  30.0000000  |     0.0000000   0.0000000  30.0000000
  nband:                                |  nband:
    32  32  32  32  32  32  32          |    28  28  28  28  28  28  28
  symafm:                               |  symafm:
    1  1  1  1  1  1  1  1  1  1  1  1  |    1  1  1  1  1  1  1  1  1  1  1  1
  symrel:                               |  symrel:
    1  0  0  0  1  0  0  0  1           |    1  0  0  0  1  0  0  0  1
    0 -1  0 -1  0  0  0  0 -1           |    0 -1  0 -1  0  0  0  0 -1
   -1 -1  0  1  0  0  0  0 -1           |   -1 -1  0  1  0  0  0  0 -1
   -1  0  0  1  1  0  0  0  1           |   -1  0  0  1  1  0  0  0  1
    0  1  0 -1 -1  0  0  0  1           |    0  1  0 -1 -1  0  0  0  1
    1  1  0  0 -1  0  0  0 -1           |    1  1  0  0 -1  0  0  0 -1
    1  0  0  0  1  0  0  0 -1           |    1  0  0  0  1  0  0  0 -1
    0 -1  0 -1  0  0  0  0  1           |    0 -1  0 -1  0  0  0  0  1
   -1 -1  0  1  0  0  0  0  1           |   -1 -1  0  1  0  0  0  0  1
   -1  0  0  1  1  0  0  0 -1           |   -1  0  0  1  1  0  0  0 -1
    0  1  0 -1 -1  0  0  0 -1           |    0  1  0 -1 -1  0  0  0 -1
    1  1  0  0 -1  0  0  0  1           |    1  1  0  0 -1  0  0  0  1
  typat:                                |  typat:
    1  2  2                             |    1  2  2
  so_psp  :                             |  so_psp  :
    2  2                                |    2  2
  istwfk:                               |  istwfk:
    1  1  1  1  1  1  1                 |    1  1  1  1  1  1  1
  kpt:                                  |  kpt:
     0.0000000   0.0000000   0.0000000  |     0.0000000   0.0000000   0.0000000
     0.1666667   0.0000000   0.0000000  |     0.1666667   0.0000000   0.0000000
     0.3333333   0.0000000   0.0000000  |     0.3333333   0.0000000   0.0000000
     0.5000000   0.0000000   0.0000000  |     0.5000000   0.0000000   0.0000000
     0.1666667   0.1666667   0.0000000  |     0.1666667   0.1666667   0.0000000
  wtk:                                  |  wtk:
    0.028  0.167  0.167  0.083  0.167   |    0.028  0.167  0.167  0.083  0.167
  tnons:                                |  tnons:
     0.0000000   0.0000000   0.0000000  |     0.0000000   0.0000000   0.0000000
     0.0000000   0.0000000   0.0000000  |     0.0000000   0.0000000   0.0000000
    -0.0000000   0.0000000   0.0000000  |    -0.0000000   0.0000000   0.0000000
    -0.0000000   0.0000000   0.0000000  |    -0.0000000   0.0000000   0.0000000
     0.0000000   0.0000000   0.0000000  |     0.0000000   0.0000000   0.0000000
     0.0000000   0.0000000   0.0000000  |     0.0000000   0.0000000   0.0000000
     0.0000000   0.0000000   0.0000000  |     0.0000000   0.0000000   0.0000000
     0.0000000   0.0000000   0.0000000  |     0.0000000   0.0000000   0.0000000
    -0.0000000   0.0000000   0.0000000  |    -0.0000000   0.0000000   0.0000000
    -0.0000000   0.0000000   0.0000000  |    -0.0000000   0.0000000   0.0000000
     0.0000000   0.0000000   0.0000000  |     0.0000000   0.0000000   0.0000000
     0.0000000   0.0000000   0.0000000  |     0.0000000   0.0000000   0.0000000
   znucl:                               |   znucl:
   42.00 16.00                          |   42.00 16.00
  pseudopotential atom type  1:         |  pseudopotential atom type  1:
  pspso   2 pspxc   1                   |  pspso   2 pspxc   1
  pspdat  10605 pspcod    3 zion  14.0  |  pspdat  10605 pspcod    3 zion  14.0
  pseudopotential atom type  2:         |  pseudopotential atom type  2:
  pspso   2 pspxc   1                   |  pspso   2 pspxc   1
  pspdat  10605 pspcod    3 zion   6.0  |  pspdat  10605 pspcod    3 zion   6.0
  xred:                                 |  xred:
    -0.0000000   0.0000000   0.0000000  |    -0.0000000   0.0000000   0.0000000
     0.6666667   0.3333333   0.0977694  |     0.6666667   0.3333333   0.0977694
     0.6666667   0.3333333  -0.0977694  |     0.6666667   0.3333333  -0.0977694
 hdr_check:  Density/Potential file is OK for restart of calculation
================================================================================
ioarr: data read from disk file io_files/MoS2_single-layer_scf_o_DEN

================================================================================

 getcut: wavevector=  0.0000  0.0000  0.0000  ngfft=  24  24 108
         ecut(hartree)=     15.000   => boxcut(ratio)=   2.06487

 ewald : nr and ng are    4 and   45
 vtorho : nnsclo_now=100, note that nnsclo,dbl_nnsclo,istep=  0 0  1
 Non-SCF iterations; kpt #     1  , k= (  0.00000  0.00000  0.00000  ), band residuals:
 res:  1.41E+00  2.59E+00  1.03E+00  8.74E-01  1.23E+00  1.03E+00  1.32E+00  7.14E-01
 res:  8.86E-01  1.00E+00  5.89E-01  5.18E-01  4.62E-01  5.53E-01  3.87E-01  2.67E-01
 res:  3.81E-01  2.27E-01  3.45E-01  2.52E-01  1.85E-01  2.84E-01  2.31E-01  2.16E-01
 res:  2.21E-01  1.77E-01  2.15E-01  1.91E-01  1.24E-01  1.74E-01  1.24E-01  1.95E-01
 ene: -1.99E+00 -1.85E+00 -1.14E+00 -1.11E+00 -1.10E+00 -1.04E+00 -9.81E-01 -9.53E-01
 ene: -4.34E-01 -4.07E-01 -3.53E-01 -3.24E-01 -1.43E-01 -1.18E-01 -5.18E-02 -3.96E-02
 ene: -3.22E-02 -1.03E-02  3.16E-03  2.32E-02  3.74E-02  8.74E-02  9.14E-02  1.26E-01
 ene:  1.67E-01  2.38E-01  2.82E-01  2.92E-01  3.16E-01  3.51E-01  3.88E-01  4.19E-01
 res:  5.23E-03  3.22E-02  1.04E-02  1.18E-02  1.22E-02  1.20E-02  1.68E-02  1.63E-02
 res:  1.17E-02  1.50E-02  1.23E-02  1.47E-02  9.63E-03  1.18E-02  6.86E-03  7.30E-03
 res:  9.26E-03  9.69E-03  1.22E-02  1.68E-02  1.71E-02  2.19E-02  2.13E-02  2.72E-02
 res:  2.82E-02  4.16E-02  2.15E-02  2.15E-02  2.37E-02  1.96E-02  1.93E-02  2.25E-02
 ene: -2.16E+00 -2.16E+00 -1.35E+00 -1.34E+00 -1.25E+00 -1.25E+00 -1.24E+00 -1.24E+00
 ene: -5.51E-01 -5.48E-01 -5.02E-01 -4.98E-01 -2.40E-01 -2.36E-01 -1.28E-01 -1.25E-01
 ene: -1.22E-01 -1.18E-01 -9.74E-02 -9.59E-02 -7.97E-02 -7.68E-02 -6.71E-02 -5.99E-02
 ene: -2.68E-02 -1.98E-02  9.47E-02  1.35E-01  1.48E-01  1.58E-01  1.79E-01  1.92E-01
 res:  1.33E-05  9.93E-05  3.63E-05  1.88E-05  7.78E-06  2.00E-05  1.10E-05  2.58E-05
 res:  1.37E-04  3.12E-04  9.91E-05  2.09E-04  1.45E-04  2.24E-04  2.27E-04  2.90E-04
 res:  2.84E-04  5.46E-04  8.84E-05  1.41E-04  8.67E-04  9.82E-04  1.82E-03  2.87E-03
 res:  7.59E-04  8.50E-04  9.46E-04  4.30E-03  5.51E-03  1.33E-02  1.58E-02  8.02E-03
 ene: -2.16E+00 -2.16E+00 -1.35E+00 -1.35E+00 -1.25E+00 -1.25E+00 -1.24E+00 -1.24E+00
 ene: -5.54E-01 -5.54E-01 -5.05E-01 -5.04E-01 -2.43E-01 -2.43E-01 -1.33E-01 -1.33E-01
 ene: -1.29E-01 -1.29E-01 -1.00E-01 -1.00E-01 -8.89E-02 -8.84E-02 -8.68E-02 -8.63E-02
 ene: -3.68E-02 -3.67E-02  7.79E-02  8.19E-02  8.59E-02  8.96E-02  9.90E-02  1.70E-01
 res:  2.93E-08  2.41E-07  4.55E-09  8.07E-09  2.38E-09  5.69E-09  2.12E-09  5.64E-09
 res:  1.70E-06  4.14E-06  7.19E-07  1.98E-06  1.05E-06  1.43E-06  3.04E-06  5.54E-06
 res:  5.00E-06  8.18E-06  3.28E-06  1.59E-06  1.73E-05  1.51E-05  1.99E-05  4.11E-05
 res:  8.75E-06  1.50E-05  1.75E-04  2.71E-04  3.89E-04  4.86E-04  1.17E-03  1.34E-02
 ene: -2.16E+00 -2.16E+00 -1.35E+00 -1.35E+00 -1.25E+00 -1.25E+00 -1.24E+00 -1.24E+00
 ene: -5.54E-01 -5.54E-01 -5.05E-01 -5.05E-01 -2.43E-01 -2.43E-01 -1.33E-01 -1.33E-01
 ene: -1.29E-01 -1.29E-01 -1.00E-01 -1.00E-01 -8.93E-02 -8.93E-02 -8.73E-02 -8.73E-02
 ene: -3.71E-02 -3.71E-02  7.40E-02  7.60E-02  8.01E-02  8.35E-02  8.47E-02  1.01E-01
 res:  7.25E-11  4.32E-10  1.09E-12  1.67E-12  9.22E-13  2.80E-12  7.52E-13  2.18E-12
 res:  1.97E-08  5.83E-08  6.24E-09  1.86E-08  4.82E-09  2.37E-08  5.48E-08  1.26E-07
 res:  7.16E-08  1.98E-07  2.30E-08  5.69E-08  3.41E-07  9.35E-07  2.84E-07  2.00E-06
 res:  3.41E-07  1.42E-06  5.30E-05  1.32E-04  1.37E-04  1.47E-04  5.43E-05  8.07E-04
 ene: -2.16E+00 -2.16E+00 -1.35E+00 -1.35E+00 -1.25E+00 -1.25E+00 -1.24E+00 -1.24E+00
 ene: -5.54E-01 -5.54E-01 -5.05E-01 -5.05E-01 -2.43E-01 -2.43E-01 -1.33E-01 -1.33E-01
 ene: -1.29E-01 -1.29E-01 -1.00E-01 -1.00E-01 -8.93E-02 -8.93E-02 -8.74E-02 -8.74E-02
 ene: -3.71E-02 -3.71E-02  7.34E-02  7.48E-02  7.54E-02  8.07E-02  8.44E-02  8.52E-02
 res:  2.41E-13  1.46E-12  1.32E-16  4.75E-16  1.76E-16  8.58E-16  1.24E-16  5.83E-16
 res:  3.65E-10  8.97E-10  6.14E-11  1.91E-10  1.00E-10  1.28E-10  1.16E-09  2.20E-09
 res:  1.89E-09  3.35E-09  9.76E-10  1.76E-09  1.63E-08  1.64E-08  1.54E-08  3.48E-08
 res:  3.31E-08  3.57E-08  6.36E-06  1.54E-05  1.69E-04  5.91E-04  1.10E-05  1.59E-05
 ene: -2.16E+00 -2.16E+00 -1.35E+00 -1.35E+00 -1.25E+00 -1.25E+00 -1.24E+00 -1.24E+00
 ene: -5.54E-01 -5.54E-01 -5.05E-01 -5.05E-01 -2.43E-01 -2.43E-01 -1.33E-01 -1.33E-01
 ene: -1.29E-01 -1.29E-01 -1.00E-01 -1.00E-01 -8.93E-02 -8.93E-02 -8.74E-02 -8.74E-02
 ene: -3.71E-02 -3.71E-02  7.33E-02  7.44E-02  7.48E-02  7.84E-02  8.44E-02  8.50E-02
 res:  9.21E-16  4.77E-15  2.10E-17  4.19E-17  4.72E-17  6.57E-17  3.68E-17  4.86E-17
 res:  5.34E-12  1.65E-11  6.20E-13  1.83E-12  2.80E-13  2.14E-12  1.97E-11  4.26E-11
 res:  2.48E-11  6.67E-11  1.90E-11  3.07E-11  2.56E-10  7.71E-10  2.74E-10  1.73E-09
 res:  7.19E-10  3.58E-09  5.78E-06  1.22E-05  8.75E-05  3.90E-04  8.02E-06  9.80E-06
 ene: -2.16E+00 -2.16E+00 -1.35E+00 -1.35E+00 -1.25E+00 -1.25E+00 -1.24E+00 -1.24E+00
 ene: -5.54E-01 -5.54E-01 -5.05E-01 -5.05E-01 -2.43E-01 -2.43E-01 -1.33E-01 -1.33E-01
 ene: -1.29E-01 -1.29E-01 -1.00E-01 -1.00E-01 -8.93E-02 -8.93E-02 -8.74E-02 -8.74E-02
 ene: -3.71E-02 -3.71E-02  7.33E-02  7.42E-02  7.45E-02  7.66E-02  8.43E-02  8.50E-02
 res:  6.26E-17  4.14E-17  2.10E-17  4.18E-17  4.46E-17  6.82E-17  5.02E-17  3.52E-17
 res:  1.01E-13  3.49E-13  6.22E-15  2.42E-14  6.98E-15  1.51E-14  3.61E-13  8.78E-13
 res:  6.35E-13  1.29E-12  3.88E-13  1.46E-12  1.30E-11  1.26E-11  1.25E-11  3.27E-11
 res:  1.03E-10  8.69E-11  4.77E-06  6.62E-05  2.26E-05  2.02E-04  9.17E-06  8.00E-06
 ene: -2.16E+00 -2.16E+00 -1.35E+00 -1.35E+00 -1.25E+00 -1.25E+00 -1.24E+00 -1.24E+00
 ene: -5.54E-01 -5.54E-01 -5.05E-01 -5.05E-01 -2.43E-01 -2.43E-01 -1.33E-01 -1.33E-01
 ene: -1.29E-01 -1.29E-01 -1.00E-01 -1.00E-01 -8.93E-02 -8.93E-02 -8.74E-02 -8.74E-02
 ene: -3.71E-02 -3.71E-02  7.33E-02  7.39E-02  7.45E-02  7.58E-02  8.43E-02  8.50E-02
 res:  7.10E-17  3.31E-17  2.09E-17  4.20E-17  4.80E-17  6.48E-17  4.76E-17  3.78E-17
 res:  2.09E-15  5.72E-15  6.02E-17  2.13E-16  6.57E-17  2.40E-16  7.95E-15  1.46E-14
 res:  9.68E-15  2.40E-14  1.51E-14  1.82E-14  2.00E-13  6.77E-13  2.84E-13  1.67E-12
 res:  2.17E-12  1.03E-11  6.54E-06  4.82E-05  3.95E-06  1.14E-04  5.37E-06  8.89E-06
 ene: -2.16E+00 -2.16E+00 -1.35E+00 -1.35E+00 -1.25E+00 -1.25E+00 -1.24E+00 -1.24E+00
 ene: -5.54E-01 -5.54E-01 -5.05E-01 -5.05E-01 -2.43E-01 -2.43E-01 -1.33E-01 -1.33E-01
 ene: -1.29E-01 -1.29E-01 -1.00E-01 -1.00E-01 -8.93E-02 -8.93E-02 -8.74E-02 -8.74E-02
 ene: -3.71E-02 -3.71E-02  7.33E-02  7.37E-02  7.45E-02  7.53E-02  8.43E-02  8.49E-02
 res:  6.76E-17  3.64E-17  4.06E-17  2.23E-17  3.98E-17  7.30E-17  5.38E-17  3.16E-17
 res:  9.88E-17  1.32E-16  7.81E-17  7.82E-17  9.41E-17  5.99E-17  1.30E-16  3.29E-16
 res:  2.26E-16  5.09E-16  2.44E-16  9.81E-16  1.08E-14  1.13E-14  1.23E-14  3.51E-14
 res:  3.17E-13  2.52E-13  5.21E-06  4.47E-05  1.54E-06  8.93E-05  8.14E-06  7.73E-06
 ene: -2.16E+00 -2.16E+00 -1.35E+00 -1.35E+00 -1.25E+00 -1.25E+00 -1.24E+00 -1.24E+00
 ene: -5.54E-01 -5.54E-01 -5.05E-01 -5.05E-01 -2.43E-01 -2.43E-01 -1.33E-01 -1.33E-01
 ene: -1.29E-01 -1.29E-01 -1.00E-01 -1.00E-01 -8.93E-02 -8.93E-02 -8.74E-02 -8.74E-02
 ene: -3.71E-02 -3.71E-02  7.32E-02  7.35E-02  7.45E-02  7.50E-02  8.43E-02  8.49E-02
 res:  3.48E-17  6.92E-17  3.09E-17  3.19E-17  3.89E-17  7.39E-17  4.27E-17  4.27E-17
 res:  6.91E-17  8.13E-17  6.99E-17  8.63E-17  7.71E-17  7.68E-17  4.00E-17  3.10E-17
 res:  3.68E-17  7.19E-17  9.25E-17  7.87E-17  1.68E-16  6.22E-16  3.06E-16  1.76E-15
 res:  6.79E-15  3.07E-14  5.52E-06  2.58E-05  7.48E-07  4.68E-05  4.49E-06  8.36E-06
 ene: -2.16E+00 -2.16E+00 -1.35E+00 -1.35E+00 -1.25E+00 -1.25E+00 -1.24E+00 -1.24E+00
 ene: -5.54E-01 -5.54E-01 -5.05E-01 -5.05E-01 -2.43E-01 -2.43E-01 -1.33E-01 -1.33E-01
 ene: -1.29E-01 -1.29E-01 -1.00E-01 -1.00E-01 -8.93E-02 -8.93E-02 -8.74E-02 -8.74E-02
 ene: -3.71E-02 -3.71E-02  7.32E-02  7.34E-02  7.45E-02  7.48E-02  8.42E-02  8.49E-02
 res:  7.85E-17  2.56E-17  3.06E-17  3.23E-17  6.21E-17  5.07E-17  4.32E-17  4.22E-17
 res:  8.80E-17  6.24E-17  6.29E-17  9.33E-17  7.98E-17  7.41E-17  4.39E-17  2.72E-17
 res:  7.22E-17  3.64E-17  4.64E-17  6.70E-17  7.85E-17  6.26E-17  7.39E-17  4.07E-17
 res:  9.72E-16  7.54E-16  4.04E-06  2.28E-05  4.38E-07  3.76E-05  7.48E-06  7.64E-06
 ene: -2.16E+00 -2.16E+00 -1.35E+00 -1.35E+00 -1.25E+00 -1.25E+00 -1.24E+00 -1.24E+00
 ene: -5.54E-01 -5.54E-01 -5.05E-01 -5.05E-01 -2.43E-01 -2.43E-01 -1.33E-01 -1.33E-01
 ene: -1.29E-01 -1.29E-01 -1.00E-01 -1.00E-01 -8.93E-02 -8.93E-02 -8.74E-02 -8.74E-02
 ene: -3.71E-02 -3.71E-02  7.32E-02  7.33E-02  7.45E-02  7.47E-02  8.42E-02  8.48E-02
 res:  5.44E-17  4.96E-17  2.98E-17  3.30E-17  3.33E-17  7.95E-17  4.04E-17  4.50E-17
 res:  5.49E-17  9.55E-17  6.27E-17  9.35E-17  7.80E-17  7.59E-17  4.15E-17  2.95E-17
 res:  4.12E-17  6.74E-17  6.38E-17  4.97E-17  6.20E-17  7.92E-17  6.95E-17  4.50E-17
 res:  2.72E-17  8.96E-17  3.52E-06  1.30E-05  2.81E-07  1.87E-05  3.95E-06  8.11E-06
 ene: -2.16E+00 -2.16E+00 -1.35E+00 -1.35E+00 -1.25E+00 -1.25E+00 -1.24E+00 -1.24E+00
 ene: -5.54E-01 -5.54E-01 -5.05E-01 -5.05E-01 -2.43E-01 -2.43E-01 -1.33E-01 -1.33E-01
 ene: -1.29E-01 -1.29E-01 -1.00E-01 -1.00E-01 -8.93E-02 -8.93E-02 -8.74E-02 -8.74E-02
 ene: -3.71E-02 -3.71E-02  7.32E-02  7.33E-02  7.44E-02  7.46E-02  8.42E-02  8.48E-02
 res:  7.04E-17  3.36E-17  3.48E-17  2.80E-17  7.89E-17  3.39E-17  5.26E-17  3.28E-17
 res:  6.01E-17  9.03E-17  6.10E-17  9.51E-17  7.89E-17  7.49E-17  3.56E-17  3.54E-17
 res:  6.70E-17  4.16E-17  5.01E-17  6.34E-17  6.64E-17  7.47E-17  2.78E-17  8.68E-17
 res:  2.89E-17  8.78E-17  2.33E-06  1.12E-05  1.73E-07  1.50E-05  6.80E-06  7.56E-06
 ene: -2.16E+00 -2.16E+00 -1.35E+00 -1.35E+00 -1.25E+00 -1.25E+00 -1.24E+00 -1.24E+00
 ene: -5.54E-01 -5.54E-01 -5.05E-01 -5.05E-01 -2.43E-01 -2.43E-01 -1.33E-01 -1.33E-01
 ene: -1.29E-01 -1.29E-01 -1.00E-01 -1.00E-01 -8.93E-02 -8.93E-02 -8.74E-02 -8.74E-02
 ene: -3.71E-02 -3.71E-02  7.32E-02  7.32E-02  7.44E-02  7.45E-02  8.42E-02  8.48E-02
 res:  6.56E-17  3.84E-17  2.87E-17  3.41E-17  5.15E-17  6.13E-17  5.03E-17  3.51E-17
 res:  8.75E-17  6.30E-17  9.33E-17  6.29E-17  6.32E-17  9.06E-17  3.48E-17  3.62E-17
 res:  3.87E-17  6.99E-17  4.66E-17  6.69E-17  5.79E-17  8.32E-17  2.88E-17  8.57E-17
 res:  7.97E-17  3.70E-17  1.86E-06  6.35E-06  1.30E-07  7.46E-06  3.52E-06  7.98E-06
 ene: -2.16E+00 -2.16E+00 -1.35E+00 -1.35E+00 -1.25E+00 -1.25E+00 -1.24E+00 -1.24E+00
 ene: -5.54E-01 -5.54E-01 -5.05E-01 -5.05E-01 -2.43E-01 -2.43E-01 -1.33E-01 -1.33E-01
 ene: -1.29E-01 -1.29E-01 -1.00E-01 -1.00E-01 -8.93E-02 -8.93E-02 -8.74E-02 -8.74E-02
 ene: -3.71E-02 -3.71E-02  7.32E-02  7.32E-02  7.44E-02  7.45E-02  8.42E-02  8.48E-02
 res:  8.69E-17  1.71E-17  3.22E-17  3.06E-17  5.33E-17  5.95E-17  5.24E-17  3.30E-17
 res:  6.42E-17  8.62E-17  9.23E-17  6.38E-17  7.09E-17  8.30E-17  3.49E-17  3.61E-17
 res:  7.09E-17  3.77E-17  5.44E-17  5.90E-17  8.49E-17  5.63E-17  8.51E-17  2.94E-17
 res:  6.11E-17  5.56E-17  1.15E-06  5.43E-06  7.68E-08  6.00E-06  6.13E-06  7.46E-06
 ene: -2.16E+00 -2.16E+00 -1.35E+00 -1.35E+00 -1.25E+00 -1.25E+00 -1.24E+00 -1.24E+00
 ene: -5.54E-01 -5.54E-01 -5.05E-01 -5.05E-01 -2.43E-01 -2.43E-01 -1.33E-01 -1.33E-01
 ene: -1.29E-01 -1.29E-01 -1.00E-01 -1.00E-01 -8.93E-02 -8.93E-02 -8.74E-02 -8.74E-02
 ene: -3.71E-02 -3.71E-02  7.32E-02  7.32E-02  7.44E-02  7.45E-02  8.41E-02  8.47E-02
 res:  8.25E-17  2.15E-17  3.26E-17  3.03E-17  4.77E-17  6.51E-17  3.57E-17  4.97E-17
 res:  7.82E-17  7.22E-17  6.03E-17  9.58E-17  6.23E-17  9.15E-17  3.98E-17  3.12E-17
 res:  7.16E-17  3.70E-17  4.52E-17  6.83E-17  7.11E-17  7.00E-17  2.81E-17  8.64E-17
 res:  4.31E-17  7.36E-17  9.00E-07  3.05E-06  6.43E-08  3.01E-06  3.15E-06  7.86E-06
 ene: -2.16E+00 -2.16E+00 -1.35E+00 -1.35E+00 -1.25E+00 -1.25E+00 -1.24E+00 -1.24E+00
 ene: -5.54E-01 -5.54E-01 -5.05E-01 -5.05E-01 -2.43E-01 -2.43E-01 -1.33E-01 -1.33E-01
 ene: -1.29E-01 -1.29E-01 -1.00E-01 -1.00E-01 -8.93E-02 -8.93E-02 -8.74E-02 -8.74E-02
 ene: -3.71E-02 -3.71E-02  7.32E-02  7.32E-02  7.44E-02  7.45E-02  8.41E-02  8.47E-02
 res:  2.73E-17  7.67E-17  3.26E-17  3.02E-17  8.10E-17  3.18E-17  5.24E-17  3.30E-17
 res:  7.21E-17  7.83E-17  6.94E-17  8.68E-17  6.36E-17  9.02E-17  4.56E-17  2.55E-17
 res:  3.49E-17  7.37E-17  5.73E-17  5.61E-17  4.91E-17  9.20E-17  8.08E-17  3.38E-17
 res:  8.57E-17  3.10E-17  5.24E-07  2.60E-06  3.58E-08  2.41E-06  5.49E-06  7.33E-06
 ene: -2.16E+00 -2.16E+00 -1.35E+00 -1.35E+00 -1.25E+00 -1.25E+00 -1.24E+00 -1.24E+00
 ene: -5.54E-01 -5.54E-01 -5.05E-01 -5.05E-01 -2.43E-01 -2.43E-01 -1.33E-01 -1.33E-01
 ene: -1.29E-01 -1.29E-01 -1.00E-01 -1.00E-01 -8.93E-02 -8.93E-02 -8.74E-02 -8.74E-02
 ene: -3.71E-02 -3.71E-02  7.32E-02  7.32E-02  7.44E-02  7.45E-02  8.41E-02  8.47E-02
 res:  4.34E-17  6.06E-17  3.00E-17  3.28E-17  2.93E-17  8.35E-17  3.63E-17  4.91E-17
 res:  9.75E-17  5.29E-17  8.20E-17  7.42E-17  9.07E-17  6.32E-17  3.88E-17  3.22E-17
 res:  4.64E-17  6.22E-17  6.88E-17  4.46E-17  6.41E-17  7.70E-17  4.57E-17  6.89E-17
 res:  8.52E-17  3.15E-17  4.19E-07  1.46E-06  3.26E-08  1.23E-06  2.81E-06  7.73E-06
 ene: -2.16E+00 -2.16E+00 -1.35E+00 -1.35E+00 -1.25E+00 -1.25E+00 -1.24E+00 -1.24E+00
 ene: -5.54E-01 -5.54E-01 -5.05E-01 -5.05E-01 -2.43E-01 -2.43E-01 -1.33E-01 -1.33E-01
 ene: -1.29E-01 -1.29E-01 -1.00E-01 -1.00E-01 -8.93E-02 -8.93E-02 -8.74E-02 -8.74E-02
 ene: -3.71E-02 -3.71E-02  7.31E-02  7.32E-02  7.44E-02  7.45E-02  8.41E-02  8.46E-02
 res:  5.00E-17  5.40E-17  2.82E-17  3.46E-17  8.30E-17  2.98E-17  2.41E-17  6.13E-17
 res:  8.67E-17  6.37E-17  6.19E-17  9.43E-17  8.71E-17  6.68E-17  2.69E-17  4.41E-17
 res:  3.31E-17  7.55E-17  4.51E-17  6.84E-17  7.06E-17  7.05E-17  6.39E-17  5.07E-17
 res:  3.50E-17  8.17E-17  2.34E-07  1.24E-06  1.72E-08  9.77E-07  4.89E-06  7.17E-06
 ene: -2.16E+00 -2.16E+00 -1.35E+00 -1.35E+00 -1.25E+00 -1.25E+00 -1.24E+00 -1.24E+00
 ene: -5.54E-01 -5.54E-01 -5.05E-01 -5.05E-01 -2.43E-01 -2.43E-01 -1.33E-01 -1.33E-01
 ene: -1.29E-01 -1.29E-01 -1.00E-01 -1.00E-01 -8.93E-02 -8.93E-02 -8.74E-02 -8.74E-02
 ene: -3.71E-02 -3.71E-02  7.31E-02  7.32E-02  7.44E-02  7.45E-02  8.41E-02  8.46E-02
 res:  2.75E-17  7.65E-17  2.84E-17  3.44E-17  3.04E-17  8.24E-17  6.29E-17  2.25E-17
 res:  7.06E-17  7.98E-17  7.22E-17  8.39E-17  7.17E-17  8.21E-17  2.73E-17  4.38E-17
 res:  7.58E-17  3.28E-17  6.12E-17  5.23E-17  7.85E-17  6.26E-17  2.97E-17  8.48E-17
 res:  7.00E-17  4.67E-17  1.92E-07  6.91E-07  1.66E-08  5.04E-07  2.50E-06  7.56E-06
 ene: -2.16E+00 -2.16E+00 -1.35E+00 -1.35E+00 -1.25E+00 -1.25E+00 -1.24E+00 -1.24E+00
 ene: -5.54E-01 -5.54E-01 -5.05E-01 -5.05E-01 -2.43E-01 -2.43E-01 -1.33E-01 -1.33E-01
 ene: -1.29E-01 -1.29E-01 -1.00E-01 -1.00E-01 -8.93E-02 -8.93E-02 -8.74E-02 -8.74E-02
 ene: -3.71E-02 -3.71E-02  7.31E-02  7.32E-02  7.44E-02  7.45E-02  8.41E-02  8.46E-02
 res:  8.42E-17  1.98E-17  2.70E-17  3.59E-17  4.22E-17  7.06E-17  6.32E-17  2.22E-17
 res:  6.39E-17  8.65E-17  7.51E-17  8.10E-17  7.41E-17  7.98E-17  3.46E-17  3.65E-17
 res:  7.17E-17  3.69E-17  4.84E-17  6.50E-17  5.12E-17  9.00E-17  5.03E-17  6.42E-17
 res:  9.02E-17  2.65E-17  1.03E-07  5.88E-07  8.33E-09  3.97E-07  4.33E-06  6.97E-06
 ene: -2.16E+00 -2.16E+00 -1.35E+00 -1.35E+00 -1.25E+00 -1.25E+00 -1.24E+00 -1.24E+00
 ene: -5.54E-01 -5.54E-01 -5.05E-01 -5.05E-01 -2.43E-01 -2.43E-01 -1.33E-01 -1.33E-01
 ene: -1.29E-01 -1.29E-01 -1.00E-01 -1.00E-01 -8.93E-02 -8.93E-02 -8.74E-02 -8.74E-02
 ene: -3.71E-02 -3.71E-02  7.31E-02  7.32E-02  7.44E-02  7.44E-02  8.41E-02  8.46E-02
 res:  1.62E-17  8.79E-17  3.51E-17  2.78E-17  4.39E-17  6.89E-17  5.77E-17  2.77E-17
 res:  9.02E-17  6.02E-17  7.93E-17  7.68E-17  7.23E-17  8.16E-17  3.16E-17  3.94E-17
 res:  3.76E-17  7.10E-17  6.59E-17  4.75E-17  8.88E-17  5.23E-17  4.67E-17  6.79E-17
 res:  8.66E-17  3.01E-17  8.78E-08  3.26E-07  8.44E-09  2.08E-07  2.21E-06  7.35E-06
 ene: -2.16E+00 -2.16E+00 -1.35E+00 -1.35E+00 -1.25E+00 -1.25E+00 -1.24E+00 -1.24E+00
 ene: -5.54E-01 -5.54E-01 -5.05E-01 -5.05E-01 -2.43E-01 -2.43E-01 -1.33E-01 -1.33E-01
 ene: -1.29E-01 -1.29E-01 -1.00E-01 -1.00E-01 -8.93E-02 -8.93E-02 -8.74E-02 -8.74E-02
 ene: -3.71E-02 -3.71E-02  7.31E-02  7.31E-02  7.44E-02  7.44E-02  8.40E-02  8.45E-02
 res:  8.52E-17  1.89E-17  2.78E-17  3.50E-17  4.59E-17  6.69E-17  3.11E-17  5.43E-17
 res:  6.32E-17  8.72E-17  9.10E-17  6.51E-17  6.86E-17  8.52E-17  4.40E-17  2.70E-17
 res:  3.52E-17  7.34E-17  4.65E-17  6.69E-17  6.44E-17  7.67E-17  3.44E-17  8.01E-17
 res:  5.53E-17  6.13E-17  4.57E-08  2.78E-07  4.08E-09  1.62E-07  3.82E-06  6.73E-06
 ene: -2.16E+00 -2.16E+00 -1.35E+00 -1.35E+00 -1.25E+00 -1.25E+00 -1.24E+00 -1.24E+00
 ene: -5.54E-01 -5.54E-01 -5.05E-01 -5.05E-01 -2.43E-01 -2.43E-01 -1.33E-01 -1.33E-01
 ene: -1.29E-01 -1.29E-01 -1.00E-01 -1.00E-01 -8.93E-02 -8.93E-02 -8.74E-02 -8.74E-02
 ene: -3.71E-02 -3.71E-02  7.31E-02  7.31E-02  7.44E-02  7.44E-02  8.40E-02  8.45E-02
 res:  6.20E-17  4.20E-17  2.54E-17  3.74E-17  4.28E-17  7.00E-17  3.13E-17  5.41E-17
 res:  5.92E-17  9.12E-17  6.19E-17  9.42E-17  5.97E-17  9.42E-17  4.43E-17  2.67E-17
 res:  6.79E-17  4.07E-17  4.77E-17  6.57E-17  7.25E-17  6.86E-17  8.68E-17  2.77E-17
 res:  4.67E-17  7.00E-17  4.00E-08  1.54E-07  4.26E-09  8.59E-08  1.95E-06  7.09E-06
 ene: -2.16E+00 -2.16E+00 -1.35E+00 -1.35E+00 -1.25E+00 -1.25E+00 -1.24E+00 -1.24E+00
 ene: -5.54E-01 -5.54E-01 -5.05E-01 -5.05E-01 -2.43E-01 -2.43E-01 -1.33E-01 -1.33E-01
 ene: -1.29E-01 -1.29E-01 -1.00E-01 -1.00E-01 -8.93E-02 -8.93E-02 -8.74E-02 -8.74E-02
 ene: -3.71E-02 -3.71E-02  7.31E-02  7.31E-02  7.44E-02  7.44E-02  8.40E-02  8.45E-02
 res:  5.47E-17  4.94E-17  2.77E-17  3.51E-17  5.54E-17  5.74E-17  3.65E-17  4.88E-17
 res:  6.20E-17  8.84E-17  7.35E-17  8.26E-17  6.62E-17  8.77E-17  2.94E-17  4.17E-17
 res:  4.63E-17  6.23E-17  4.71E-17  6.63E-17  7.17E-17  6.95E-17  6.60E-17  4.86E-17
 res:  8.28E-17  3.39E-17  2.02E-08  1.31E-07  2.01E-09  6.63E-08  3.36E-06  6.45E-06
 ene: -2.16E+00 -2.16E+00 -1.35E+00 -1.35E+00 -1.25E+00 -1.25E+00 -1.24E+00 -1.24E+00
 ene: -5.54E-01 -5.54E-01 -5.05E-01 -5.05E-01 -2.43E-01 -2.43E-01 -1.33E-01 -1.33E-01
 ene: -1.29E-01 -1.29E-01 -1.00E-01 -1.00E-01 -8.93E-02 -8.93E-02 -8.74E-02 -8.74E-02
 ene: -3.71E-02 -3.71E-02  7.31E-02  7.31E-02  7.44E-02  7.44E-02  8.40E-02  8.45E-02
 res:  4.64E-17  5.76E-17  3.85E-17  2.44E-17  6.54E-17  4.74E-17  5.42E-17  3.12E-17
 res:  6.04E-17  9.00E-17  9.51E-17  6.10E-17  8.09E-17  7.30E-17  3.60E-17  3.50E-17
 res:  7.20E-17  3.66E-17  6.46E-17  4.88E-17  4.88E-17  9.23E-17  3.00E-17  8.45E-17
 res:  7.18E-17  4.48E-17  1.83E-08  7.22E-08  2.13E-09  3.56E-08  1.72E-06  6.80E-06
 ene: -2.16E+00 -2.16E+00 -1.35E+00 -1.35E+00 -1.25E+00 -1.25E+00 -1.24E+00 -1.24E+00
 ene: -5.54E-01 -5.54E-01 -5.05E-01 -5.05E-01 -2.43E-01 -2.43E-01 -1.33E-01 -1.33E-01
 ene: -1.29E-01 -1.29E-01 -1.00E-01 -1.00E-01 -8.93E-02 -8.93E-02 -8.74E-02 -8.74E-02
 ene: -3.71E-02 -3.71E-02  7.31E-02  7.31E-02  7.44E-02  7.44E-02  8.40E-02  8.44E-02
 res:  4.63E-17  5.77E-17  2.13E-17  4.15E-17  3.56E-17  7.72E-17  6.09E-17  2.45E-17
 res:  9.01E-17  6.03E-17  9.46E-17  6.15E-17  6.20E-17  9.18E-17  3.30E-17  3.80E-17
 res:  7.00E-17  3.86E-17  6.75E-17  4.60E-17  5.77E-17  8.35E-17  6.38E-17  5.07E-17
 res:  3.93E-17  7.74E-17  8.98E-09  6.13E-08  9.90E-10  2.72E-08  2.95E-06  6.15E-06
 ene: -2.16E+00 -2.16E+00 -1.35E+00 -1.35E+00 -1.25E+00 -1.25E+00 -1.24E+00 -1.24E+00
 ene: -5.54E-01 -5.54E-01 -5.05E-01 -5.05E-01 -2.43E-01 -2.43E-01 -1.33E-01 -1.33E-01
 ene: -1.29E-01 -1.29E-01 -1.00E-01 -1.00E-01 -8.93E-02 -8.93E-02 -8.74E-02 -8.74E-02
 ene: -3.71E-02 -3.71E-02  7.31E-02  7.31E-02  7.44E-02  7.44E-02  8.40E-02  8.44E-02
 res:  7.46E-17  2.95E-17  2.17E-17  4.11E-17  7.80E-17  3.48E-17  6.08E-17  2.46E-17
 res:  5.61E-17  9.43E-17  7.97E-17  7.64E-17  7.43E-17  7.95E-17  3.77E-17  3.33E-17
 res:  6.18E-17  4.67E-17  5.65E-17  5.69E-17  6.85E-17  7.26E-17  8.11E-17  3.34E-17
 res:  8.47E-17  3.20E-17  8.34E-09  3.38E-08  1.06E-09  1.48E-08  1.51E-06  6.47E-06
 ene: -2.16E+00 -2.16E+00 -1.35E+00 -1.35E+00 -1.25E+00 -1.25E+00 -1.24E+00 -1.24E+00
 ene: -5.54E-01 -5.54E-01 -5.05E-01 -5.05E-01 -2.43E-01 -2.43E-01 -1.33E-01 -1.33E-01
 ene: -1.29E-01 -1.29E-01 -1.00E-01 -1.00E-01 -8.93E-02 -8.93E-02 -8.74E-02 -8.74E-02
 ene: -3.71E-02 -3.71E-02  7.31E-02  7.31E-02  7.44E-02  7.44E-02  8.40E-02  8.44E-02
 res:  5.68E-17  4.72E-17  2.13E-17  4.16E-17  3.63E-17  7.65E-17  5.53E-17  3.01E-17
 res:  4.46E-17  5.31E-17  7.06E-17  8.55E-17  7.54E-17  7.84E-17  3.49E-17  3.62E-17
 res:  7.21E-17  3.64E-17  6.44E-17  4.90E-17  7.56E-17  6.55E-17  2.83E-17  8.62E-17
 res:  3.29E-17  8.38E-17  4.00E-09  2.87E-08  4.90E-10  1.12E-08  2.58E-06  5.83E-06
 ene: -2.16E+00 -2.16E+00 -1.35E+00 -1.35E+00 -1.25E+00 -1.25E+00 -1.24E+00 -1.24E+00
 ene: -5.54E-01 -5.54E-01 -5.05E-01 -5.05E-01 -2.43E-01 -2.43E-01 -1.33E-01 -1.33E-01
 ene: -1.29E-01 -1.29E-01 -1.00E-01 -1.00E-01 -8.93E-02 -8.93E-02 -8.74E-02 -8.74E-02
 ene: -3.71E-02 -3.71E-02  7.31E-02  7.31E-02  7.44E-02  7.44E-02  8.40E-02  8.44E-02
 res:  2.82E-17  7.58E-17  2.13E-17  4.16E-17  4.08E-17  7.20E-17  2.80E-17  5.74E-17
 res:  4.33E-17  5.44E-17  6.12E-17  9.49E-17  8.45E-17  6.93E-17  3.60E-17  3.51E-17
 res:  5.94E-17  4.92E-17  4.64E-17  6.70E-17  8.19E-17  5.92E-17  8.32E-17  3.13E-17
 res:  6.81E-17  4.85E-17  3.80E-09  1.58E-08  5.26E-10  6.16E-09  1.32E-06  6.11E-06
 ene: -2.16E+00 -2.16E+00 -1.35E+00 -1.35E+00 -1.25E+00 -1.25E+00 -1.24E+00 -1.24E+00
 ene: -5.54E-01 -5.54E-01 -5.05E-01 -5.05E-01 -2.43E-01 -2.43E-01 -1.33E-01 -1.33E-01
 ene: -1.29E-01 -1.29E-01 -1.00E-01 -1.00E-01 -8.93E-02 -8.93E-02 -8.74E-02 -8.74E-02
 ene: -3.71E-02 -3.71E-02  7.31E-02  7.31E-02  7.44E-02  7.44E-02  8.40E-02  8.43E-02
 res:  4.44E-17  5.96E-17  3.37E-17  2.91E-17  7.06E-17  4.23E-17  5.83E-17  2.70E-17
 res:  4.06E-17  5.71E-17  9.62E-17  6.00E-17  6.75E-17  8.64E-17  2.64E-17  4.46E-17
 res:  3.93E-17  6.93E-17  4.52E-17  6.83E-17  7.88E-17  6.23E-17  4.53E-17  6.92E-17
 res:  3.18E-17  8.49E-17  1.78E-09  1.34E-08  2.42E-10  4.61E-09  2.25E-06  5.49E-06
 ene: -2.16E+00 -2.16E+00 -1.35E+00 -1.35E+00 -1.25E+00 -1.25E+00 -1.24E+00 -1.24E+00
 ene: -5.54E-01 -5.54E-01 -5.05E-01 -5.05E-01 -2.43E-01 -2.43E-01 -1.33E-01 -1.33E-01
 ene: -1.29E-01 -1.29E-01 -1.00E-01 -1.00E-01 -8.93E-02 -8.93E-02 -8.74E-02 -8.74E-02
 ene: -3.71E-02 -3.71E-02  7.31E-02  7.31E-02  7.44E-02  7.44E-02  8.40E-02  8.43E-02
 res:  5.04E-17  5.36E-17  3.04E-17  3.24E-17  2.90E-17  8.38E-17  2.64E-17  5.89E-17
 res:  4.05E-17  5.72E-17  9.10E-17  6.51E-17  8.47E-17  6.91E-17  4.25E-17  2.85E-17
 res:  7.11E-17  3.75E-17  4.81E-17  6.53E-17  5.67E-17  8.44E-17  7.67E-17  3.78E-17
 res:  7.32E-17  4.35E-17  1.73E-09  7.35E-09  2.60E-10  2.57E-09  1.15E-06  5.75E-06
 ene: -2.16E+00 -2.16E+00 -1.35E+00 -1.35E+00 -1.25E+00 -1.25E+00 -1.24E+00 -1.24E+00
 ene: -5.54E-01 -5.54E-01 -5.05E-01 -5.05E-01 -2.43E-01 -2.43E-01 -1.33E-01 -1.33E-01
 ene: -1.29E-01 -1.29E-01 -1.00E-01 -1.00E-01 -8.93E-02 -8.93E-02 -8.74E-02 -8.74E-02
 ene: -3.71E-02 -3.71E-02  7.31E-02  7.31E-02  7.44E-02  7.44E-02  8.40E-02  8.43E-02
 res:  6.09E-17  4.31E-17  2.66E-17  3.62E-17  2.97E-17  8.31E-17  2.58E-17  5.96E-17
 res:  5.49E-17  4.28E-17  9.01E-17  6.60E-17  8.53E-17  6.86E-17  3.68E-17  3.42E-17
 res:  3.47E-17  7.39E-17  4.83E-17  6.52E-17  6.10E-17  8.01E-17  7.23E-17  4.22E-17
 res:  7.94E-17  3.73E-17  7.96E-10  6.24E-09  1.20E-10  1.90E-09  1.96E-06  5.14E-06
 ene: -2.16E+00 -2.16E+00 -1.35E+00 -1.35E+00 -1.25E+00 -1.25E+00 -1.24E+00 -1.24E+00
 ene: -5.54E-01 -5.54E-01 -5.05E-01 -5.05E-01 -2.43E-01 -2.43E-01 -1.33E-01 -1.33E-01
 ene: -1.29E-01 -1.29E-01 -1.00E-01 -1.00E-01 -8.93E-02 -8.93E-02 -8.74E-02 -8.74E-02
 ene: -3.71E-02 -3.71E-02  7.31E-02  7.31E-02  7.44E-02  7.44E-02  8.40E-02  8.43E-02
 res:  5.35E-17  5.05E-17  2.65E-17  3.63E-17  7.43E-17  3.85E-17  5.69E-17  2.85E-17
 res:  5.25E-17  4.52E-17  9.21E-17  6.40E-17  6.18E-17  9.21E-17  3.41E-17  3.69E-17
 res:  6.91E-17  3.94E-17  4.70E-17  6.64E-17  8.76E-17  5.35E-17  5.09E-17  6.36E-17
 res:  3.07E-17  8.60E-17  7.91E-10  3.42E-09  1.28E-10  1.07E-09  1.00E-06  5.37E-06
 ene: -2.16E+00 -2.16E+00 -1.35E+00 -1.35E+00 -1.25E+00 -1.25E+00 -1.24E+00 -1.24E+00
 ene: -5.54E-01 -5.54E-01 -5.05E-01 -5.05E-01 -2.43E-01 -2.43E-01 -1.33E-01 -1.33E-01
 ene: -1.29E-01 -1.29E-01 -1.00E-01 -1.00E-01 -8.93E-02 -8.93E-02 -8.74E-02 -8.74E-02
 ene: -3.71E-02 -3.71E-02  7.31E-02  7.31E-02  7.44E-02  7.44E-02  8.40E-02  8.43E-02
 res:  6.00E-17  4.40E-17  2.64E-17  3.65E-17  7.60E-17  3.68E-17  6.59E-17  1.95E-17
 res:  4.83E-17  4.93E-17  6.69E-17  8.92E-17  8.26E-17  7.13E-17  3.69E-17  3.41E-17
 res:  3.84E-17  7.02E-17  4.48E-17  6.86E-17  6.84E-17  7.27E-17  2.73E-17  8.72E-17
 res:  2.69E-17  8.98E-17  3.56E-10  2.90E-09  5.95E-11  7.86E-10  1.70E-06  4.78E-06
 ene: -2.16E+00 -2.16E+00 -1.35E+00 -1.35E+00 -1.25E+00 -1.25E+00 -1.24E+00 -1.24E+00
 ene: -5.54E-01 -5.54E-01 -5.05E-01 -5.05E-01 -2.43E-01 -2.43E-01 -1.33E-01 -1.33E-01
 ene: -1.29E-01 -1.29E-01 -1.00E-01 -1.00E-01 -8.93E-02 -8.93E-02 -8.74E-02 -8.74E-02
 ene: -3.71E-02 -3.71E-02  7.31E-02  7.31E-02  7.44E-02  7.44E-02  8.40E-02  8.42E-02
 res:  4.31E-17  6.09E-17  3.69E-17  2.59E-17  7.87E-17  3.42E-17  6.62E-17  1.92E-17
 res:  4.98E-17  4.79E-17  8.94E-17  6.67E-17  9.65E-17  5.73E-17  3.48E-17  3.62E-17
 res:  4.03E-17  6.82E-17  6.20E-17  5.14E-17  4.76E-17  9.35E-17  2.84E-17  8.61E-17
 res:  2.83E-17  8.84E-17  3.60E-10  1.59E-09  6.25E-11  4.48E-10  8.70E-07  4.99E-06
 ene: -2.16E+00 -2.16E+00 -1.35E+00 -1.35E+00 -1.25E+00 -1.25E+00 -1.24E+00 -1.24E+00
 ene: -5.54E-01 -5.54E-01 -5.05E-01 -5.05E-01 -2.43E-01 -2.43E-01 -1.33E-01 -1.33E-01
 ene: -1.29E-01 -1.29E-01 -1.00E-01 -1.00E-01 -8.93E-02 -8.93E-02 -8.74E-02 -8.74E-02
 ene: -3.71E-02 -3.71E-02  7.31E-02  7.31E-02  7.44E-02  7.44E-02  8.39E-02  8.42E-02
 res:  3.67E-17  6.73E-17  2.19E-17  4.09E-17  7.87E-17  3.41E-17  1.80E-17  6.74E-17
 res:  5.75E-17  4.02E-17  7.84E-17  7.77E-17  9.32E-17  6.06E-17  3.72E-17  3.38E-17
 res:  7.25E-17  3.60E-17  6.72E-17  4.62E-17  5.77E-17  8.34E-17  8.68E-17  2.77E-17
 res:  2.73E-17  8.94E-17  1.59E-10  1.34E-09  2.95E-11  3.25E-10  1.48E-06  4.43E-06
 ene: -2.16E+00 -2.16E+00 -1.35E+00 -1.35E+00 -1.25E+00 -1.25E+00 -1.24E+00 -1.24E+00
 ene: -5.54E-01 -5.54E-01 -5.05E-01 -5.05E-01 -2.43E-01 -2.43E-01 -1.33E-01 -1.33E-01
 ene: -1.29E-01 -1.29E-01 -1.00E-01 -1.00E-01 -8.93E-02 -8.93E-02 -8.74E-02 -8.74E-02
 ene: -3.71E-02 -3.71E-02  7.31E-02  7.31E-02  7.44E-02  7.44E-02  8.39E-02  8.42E-02
 res:  8.58E-17  1.83E-17  2.21E-17  4.08E-17  3.59E-17  7.70E-17  1.86E-17  6.68E-17
 res:  5.83E-17  3.93E-17  8.70E-17  6.91E-17  8.63E-17  6.75E-17  3.44E-17  3.66E-17
 res:  3.59E-17  7.26E-17  4.64E-17  6.70E-17  5.48E-17  8.63E-17  3.28E-17  8.18E-17
 res:  3.05E-17  8.62E-17  1.64E-10  7.34E-10  3.05E-11  1.87E-10  7.55E-07  4.61E-06
 ene: -2.16E+00 -2.16E+00 -1.35E+00 -1.35E+00 -1.25E+00 -1.25E+00 -1.24E+00 -1.24E+00
 ene: -5.54E-01 -5.54E-01 -5.05E-01 -5.05E-01 -2.43E-01 -2.43E-01 -1.33E-01 -1.33E-01
 ene: -1.29E-01 -1.29E-01 -1.00E-01 -1.00E-01 -8.93E-02 -8.93E-02 -8.74E-02 -8.74E-02
 ene: -3.71E-02 -3.71E-02  7.31E-02  7.31E-02  7.44E-02  7.44E-02  8.39E-02  8.42E-02
 res:  3.16E-17  7.24E-17  3.51E-17  2.78E-17  7.73E-17  3.55E-17  6.74E-17  1.80E-17
 res:  5.49E-17  4.28E-17  8.85E-17  6.77E-17  6.36E-17  9.03E-17  3.89E-17  3.21E-17
 res:  6.95E-17  3.90E-17  5.88E-17  5.46E-17  4.33E-17  9.78E-17  8.68E-17  2.77E-17
 res:  6.95E-17  4.71E-17  7.15E-11  6.20E-10  1.46E-11  1.35E-10  1.28E-06  4.09E-06
 ene: -2.16E+00 -2.16E+00 -1.35E+00 -1.35E+00 -1.25E+00 -1.25E+00 -1.24E+00 -1.24E+00
 ene: -5.54E-01 -5.54E-01 -5.05E-01 -5.05E-01 -2.43E-01 -2.43E-01 -1.33E-01 -1.33E-01
 ene: -1.29E-01 -1.29E-01 -1.00E-01 -1.00E-01 -8.93E-02 -8.93E-02 -8.74E-02 -8.74E-02
 ene: -3.71E-02 -3.71E-02  7.31E-02  7.31E-02  7.44E-02  7.44E-02  8.39E-02  8.42E-02
 res:  7.64E-17  2.76E-17  2.73E-17  3.55E-17  4.05E-17  7.24E-17  6.73E-17  1.80E-17
 res:  5.23E-17  4.53E-17  6.09E-17  9.52E-17  6.24E-17  9.15E-17  3.96E-17  3.14E-17
 res:  3.75E-17  7.11E-17  5.62E-17  5.72E-17  5.78E-17  8.33E-17  2.89E-17  8.56E-17
 res:  3.10E-17  8.57E-17  7.45E-11  3.39E-10  1.49E-11  7.84E-11  6.55E-07  4.25E-06
 ene: -2.16E+00 -2.16E+00 -1.35E+00 -1.35E+00 -1.25E+00 -1.25E+00 -1.24E+00 -1.24E+00
 ene: -5.54E-01 -5.54E-01 -5.05E-01 -5.05E-01 -2.43E-01 -2.43E-01 -1.33E-01 -1.33E-01
 ene: -1.29E-01 -1.29E-01 -1.00E-01 -1.00E-01 -8.93E-02 -8.93E-02 -8.74E-02 -8.74E-02
 ene: -3.71E-02 -3.71E-02  7.31E-02  7.31E-02  7.44E-02  7.44E-02  8.39E-02  8.42E-02
 res:  8.61E-17  1.79E-17  3.52E-17  2.77E-17  6.63E-17  4.65E-17  3.85E-17  4.69E-17
 res:  4.51E-17  5.25E-17  9.37E-17  6.25E-17  6.40E-17  8.98E-17  4.19E-17  2.91E-17
 res:  7.00E-17  3.86E-17  5.85E-17  5.50E-17  6.95E-17  7.16E-17  2.74E-17  8.71E-17
 res:  2.78E-17  8.89E-17  3.20E-11  2.86E-10  7.24E-12  5.58E-11  1.11E-06  3.76E-06
 ene: -2.16E+00 -2.16E+00 -1.35E+00 -1.35E+00 -1.25E+00 -1.25E+00 -1.24E+00 -1.24E+00
 ene: -5.54E-01 -5.54E-01 -5.05E-01 -5.05E-01 -2.43E-01 -2.43E-01 -1.33E-01 -1.33E-01
 ene: -1.29E-01 -1.29E-01 -1.00E-01 -1.00E-01 -8.93E-02 -8.93E-02 -8.74E-02 -8.74E-02
 ene: -3.71E-02 -3.71E-02  7.31E-02  7.31E-02  7.44E-02  7.44E-02  8.39E-02  8.42E-02
 res:  1.54E-17  8.87E-17  2.87E-17  3.41E-17  4.97E-17  6.31E-17  5.53E-17  3.01E-17
 res:  4.42E-17  5.34E-17  8.13E-17  7.49E-17  6.26E-17  9.12E-17  3.33E-17  3.77E-17
 res:  6.77E-17  4.09E-17  4.82E-17  6.52E-17  6.85E-17  7.26E-17  2.73E-17  8.72E-17
 res:  4.68E-17  6.99E-17  3.39E-11  1.56E-10  7.24E-12  3.29E-11  5.67E-07  3.89E-06
 ene: -2.16E+00 -2.16E+00 -1.35E+00 -1.35E+00 -1.25E+00 -1.25E+00 -1.24E+00 -1.24E+00
 ene: -5.54E-01 -5.54E-01 -5.05E-01 -5.05E-01 -2.43E-01 -2.43E-01 -1.33E-01 -1.33E-01
 ene: -1.29E-01 -1.29E-01 -1.00E-01 -1.00E-01 -8.93E-02 -8.93E-02 -8.74E-02 -8.74E-02
 ene: -3.71E-02 -3.71E-02  7.31E-02  7.31E-02  7.44E-02  7.44E-02  8.39E-02  8.41E-02
 res:  1.42E-17  8.98E-17  2.96E-17  3.33E-17  5.98E-17  5.30E-17  3.10E-17  5.44E-17
 res:  4.54E-17  5.23E-17  8.20E-17  7.41E-17  7.49E-17  7.89E-17  4.15E-17  2.96E-17
 res:  3.86E-17  6.99E-17  5.37E-17  5.97E-17  6.57E-17  7.55E-17  2.82E-17  8.64E-17
 res:  8.26E-17  3.41E-17  1.44E-11  1.32E-10  3.59E-12  2.31E-11  9.61E-07  3.44E-06
 ene: -2.16E+00 -2.16E+00 -1.35E+00 -1.35E+00 -1.25E+00 -1.25E+00 -1.24E+00 -1.24E+00
 ene: -5.54E-01 -5.54E-01 -5.05E-01 -5.05E-01 -2.43E-01 -2.43E-01 -1.33E-01 -1.33E-01
 ene: -1.29E-01 -1.29E-01 -1.00E-01 -1.00E-01 -8.93E-02 -8.93E-02 -8.74E-02 -8.74E-02
 ene: -3.71E-02 -3.71E-02  7.31E-02  7.31E-02  7.44E-02  7.44E-02  8.39E-02  8.41E-02
 res:  1.55E-17  8.85E-17  3.34E-17  2.94E-17  5.22E-17  6.06E-17  3.42E-17  5.11E-17
 res:  4.37E-17  5.40E-17  6.17E-17  9.44E-17  6.22E-17  9.17E-17  3.79E-17  3.31E-17
 res:  3.66E-17  7.20E-17  5.49E-17  5.85E-17  7.90E-17  6.21E-17  8.54E-17  2.91E-17
 res:  3.38E-17  8.28E-17  1.54E-11  7.19E-11  3.52E-12  1.38E-11  4.91E-07  3.56E-06
 ene: -2.16E+00 -2.16E+00 -1.35E+00 -1.35E+00 -1.25E+00 -1.25E+00 -1.24E+00 -1.24E+00
 ene: -5.54E-01 -5.54E-01 -5.05E-01 -5.05E-01 -2.43E-01 -2.43E-01 -1.33E-01 -1.33E-01
 ene: -1.29E-01 -1.29E-01 -1.00E-01 -1.00E-01 -8.93E-02 -8.93E-02 -8.74E-02 -8.74E-02
 ene: -3.71E-02 -3.71E-02  7.31E-02  7.31E-02  7.44E-02  7.44E-02  8.39E-02  8.41E-02
 res:  2.90E-17  7.50E-17  2.44E-17  3.84E-17  5.14E-17  6.14E-17  2.64E-17  5.90E-17
 res:  5.55E-17  4.21E-17  8.32E-17  7.29E-17  7.12E-17  8.27E-17  3.85E-17  3.25E-17
 res:  6.95E-17  3.91E-17  5.35E-17  6.00E-17  7.40E-17  6.71E-17  4.85E-17  6.60E-17
 res:  4.45E-17  7.21E-17  6.45E-12  6.06E-11  1.77E-12  9.59E-12  8.31E-07  3.13E-06
 ene: -2.16E+00 -2.16E+00 -1.35E+00 -1.35E+00 -1.25E+00 -1.25E+00 -1.24E+00 -1.24E+00
 ene: -5.54E-01 -5.54E-01 -5.05E-01 -5.05E-01 -2.43E-01 -2.43E-01 -1.33E-01 -1.33E-01
 ene: -1.29E-01 -1.29E-01 -1.00E-01 -1.00E-01 -8.93E-02 -8.93E-02 -8.74E-02 -8.74E-02
 ene: -3.71E-02 -3.71E-02  7.31E-02  7.31E-02  7.44E-02  7.44E-02  8.39E-02  8.41E-02
 res:  6.45E-17  3.95E-17  4.19E-17  2.09E-17  7.54E-17  3.74E-17  5.92E-17  2.62E-17
 res:  4.37E-17  5.40E-17  7.50E-17  8.11E-17  6.77E-17  8.61E-17  3.70E-17  3.40E-17
 res:  7.28E-17  3.58E-17  5.48E-17  5.86E-17  5.96E-17  8.15E-17  3.37E-17  8.08E-17
 res:  8.40E-17  3.27E-17  6.97E-12  3.30E-11  1.71E-12  5.77E-12  4.25E-07  3.24E-06
 ene: -2.16E+00 -2.16E+00 -1.35E+00 -1.35E+00 -1.25E+00 -1.25E+00 -1.24E+00 -1.24E+00
 ene: -5.54E-01 -5.54E-01 -5.05E-01 -5.05E-01 -2.43E-01 -2.43E-01 -1.33E-01 -1.33E-01
 ene: -1.29E-01 -1.29E-01 -1.00E-01 -1.00E-01 -8.93E-02 -8.93E-02 -8.74E-02 -8.74E-02
 ene: -3.71E-02 -3.71E-02  7.31E-02  7.31E-02  7.44E-02  7.44E-02  8.39E-02  8.41E-02
 res:  4.34E-17  6.07E-17  4.18E-17  2.10E-17  5.55E-17  5.73E-17  3.57E-17  4.96E-17
 res:  4.28E-17  5.48E-17  6.27E-17  9.35E-17  8.08E-17  7.31E-17  3.76E-17  3.35E-17
 res:  3.29E-17  7.56E-17  5.79E-17  5.56E-17  8.81E-17  5.30E-17  3.76E-17  7.69E-17
 res:  5.79E-17  5.88E-17  2.90E-12  2.78E-11  8.78E-13  3.97E-12  7.17E-07  2.85E-06
 ene: -2.16E+00 -2.16E+00 -1.35E+00 -1.35E+00 -1.25E+00 -1.25E+00 -1.24E+00 -1.24E+00
 ene: -5.54E-01 -5.54E-01 -5.05E-01 -5.05E-01 -2.43E-01 -2.43E-01 -1.33E-01 -1.33E-01
 ene: -1.29E-01 -1.29E-01 -1.00E-01 -1.00E-01 -8.93E-02 -8.93E-02 -8.74E-02 -8.74E-02
 ene: -3.71E-02 -3.71E-02  7.31E-02  7.31E-02  7.44E-02  7.44E-02  8.39E-02  8.41E-02
 res:  5.63E-17  4.78E-17  3.84E-17  2.44E-17  7.71E-17  3.57E-17  1.99E-17  6.55E-17
 res:  4.15E-17  5.62E-17  6.90E-17  8.71E-17  6.86E-17  8.53E-17  3.32E-17  3.79E-17
 res:  7.27E-17  3.59E-17  5.07E-17  6.27E-17  6.15E-17  7.96E-17  8.44E-17  3.01E-17
 res:  3.10E-17  8.57E-17  3.16E-12  1.52E-11  8.30E-13  2.42E-12  3.67E-07  2.93E-06
 ene: -2.16E+00 -2.16E+00 -1.35E+00 -1.35E+00 -1.25E+00 -1.25E+00 -1.24E+00 -1.24E+00
 ene: -5.54E-01 -5.54E-01 -5.05E-01 -5.05E-01 -2.43E-01 -2.43E-01 -1.33E-01 -1.33E-01
 ene: -1.29E-01 -1.29E-01 -1.00E-01 -1.00E-01 -8.93E-02 -8.93E-02 -8.74E-02 -8.74E-02
 ene: -3.71E-02 -3.71E-02  7.31E-02  7.31E-02  7.44E-02  7.44E-02  8.39E-02  8.41E-02
 res:  5.36E-17  5.04E-17  3.29E-17  2.99E-17  3.43E-17  7.85E-17  1.84E-17  6.70E-17
 res:  5.16E-17  4.61E-17  8.63E-17  6.99E-17  8.07E-17  7.32E-17  4.36E-17  2.74E-17
 res:  7.19E-17  3.67E-17  5.35E-17  5.99E-17  7.15E-17  6.96E-17  2.83E-17  8.63E-17
 res:  8.01E-17  3.66E-17  1.30E-12  1.28E-11  4.34E-13  1.65E-12  6.19E-07  2.58E-06
 ene: -2.16E+00 -2.16E+00 -1.35E+00 -1.35E+00 -1.25E+00 -1.25E+00 -1.24E+00 -1.24E+00
 ene: -5.54E-01 -5.54E-01 -5.05E-01 -5.05E-01 -2.43E-01 -2.43E-01 -1.33E-01 -1.33E-01
 ene: -1.29E-01 -1.29E-01 -1.00E-01 -1.00E-01 -8.93E-02 -8.93E-02 -8.74E-02 -8.74E-02
 ene: -3.71E-02 -3.71E-02  7.31E-02  7.31E-02  7.44E-02  7.44E-02  8.39E-02  8.41E-02
 res:  5.70E-17  4.71E-17  3.33E-17  2.96E-17  3.55E-17  7.73E-17  4.66E-17  3.88E-17
 res:  5.37E-17  4.40E-17  7.66E-17  7.95E-17  6.58E-17  8.80E-17  3.35E-17  3.75E-17
 res:  3.55E-17  7.31E-17  5.31E-17  6.04E-17  7.97E-17  6.14E-17  8.34E-17  3.11E-17
 res:  3.49E-17  8.18E-17  1.43E-12  6.95E-12  4.02E-13  1.02E-12  3.17E-07  2.65E-06
 ene: -2.16E+00 -2.16E+00 -1.35E+00 -1.35E+00 -1.25E+00 -1.25E+00 -1.24E+00 -1.24E+00
 ene: -5.54E-01 -5.54E-01 -5.05E-01 -5.05E-01 -2.43E-01 -2.43E-01 -1.33E-01 -1.33E-01
 ene: -1.29E-01 -1.29E-01 -1.00E-01 -1.00E-01 -8.93E-02 -8.93E-02 -8.74E-02 -8.74E-02
 ene: -3.71E-02 -3.71E-02  7.31E-02  7.31E-02  7.44E-02  7.44E-02  8.39E-02  8.40E-02
 res:  4.01E-17  6.40E-17  3.04E-17  3.24E-17  8.39E-17  2.89E-17  3.69E-17  4.85E-17
 res:  4.17E-17  5.60E-17  7.05E-17  8.56E-17  8.72E-17  6.67E-17  3.79E-17  3.31E-17
 res:  7.09E-17  3.76E-17  5.62E-17  5.72E-17  7.34E-17  6.77E-17  8.12E-17  3.34E-17
 res:  3.18E-17  8.49E-17  5.84E-13  5.84E-12  2.14E-13  6.81E-13  5.35E-07  2.33E-06
 ene: -2.16E+00 -2.16E+00 -1.35E+00 -1.35E+00 -1.25E+00 -1.25E+00 -1.24E+00 -1.24E+00
 ene: -5.54E-01 -5.54E-01 -5.05E-01 -5.05E-01 -2.43E-01 -2.43E-01 -1.33E-01 -1.33E-01
 ene: -1.29E-01 -1.29E-01 -1.00E-01 -1.00E-01 -8.93E-02 -8.93E-02 -8.74E-02 -8.74E-02
 ene: -3.71E-02 -3.71E-02  7.31E-02  7.31E-02  7.44E-02  7.44E-02  8.39E-02  8.40E-02
 res:  5.18E-17  5.22E-17  3.04E-17  3.25E-17  2.85E-17  8.43E-17  4.84E-17  3.70E-17
 res:  4.21E-17  5.56E-17  8.88E-17  6.73E-17  5.92E-17  9.46E-17  3.44E-17  3.67E-17
 res:  3.88E-17  6.98E-17  6.56E-17  4.78E-17  7.39E-17  6.72E-17  3.13E-17  8.33E-17
 res:  8.43E-17  3.24E-17  6.46E-13  3.18E-12  1.95E-13  4.26E-13  2.74E-07  2.39E-06
 ene: -2.16E+00 -2.16E+00 -1.35E+00 -1.35E+00 -1.25E+00 -1.25E+00 -1.24E+00 -1.24E+00
 ene: -5.54E-01 -5.54E-01 -5.05E-01 -5.05E-01 -2.43E-01 -2.43E-01 -1.33E-01 -1.33E-01
 ene: -1.29E-01 -1.29E-01 -1.00E-01 -1.00E-01 -8.93E-02 -8.93E-02 -8.74E-02 -8.74E-02
 ene: -3.71E-02 -3.71E-02  7.31E-02  7.31E-02  7.44E-02  7.44E-02  8.39E-02  8.40E-02
 res:  4.98E-17  5.43E-17  3.34E-17  2.95E-17  8.33E-17  2.95E-17  5.81E-17  2.73E-17
 res:  4.20E-17  5.57E-17  9.22E-17  6.39E-17  7.26E-17  8.13E-17  2.82E-17  4.28E-17
 res:  3.85E-17  7.01E-17  6.42E-17  4.92E-17  6.89E-17  7.22E-17  2.74E-17  8.71E-17
 res:  3.39E-17  8.28E-17  2.63E-13  2.67E-12  1.06E-13  2.82E-13  4.61E-07  2.10E-06
 ene: -2.16E+00 -2.16E+00 -1.35E+00 -1.35E+00 -1.25E+00 -1.25E+00 -1.24E+00 -1.24E+00
 ene: -5.54E-01 -5.54E-01 -5.05E-01 -5.05E-01 -2.43E-01 -2.43E-01 -1.33E-01 -1.33E-01
 ene: -1.29E-01 -1.29E-01 -1.00E-01 -1.00E-01 -8.93E-02 -8.93E-02 -8.74E-02 -8.74E-02
 ene: -3.71E-02 -3.71E-02  7.31E-02  7.31E-02  7.44E-02  7.44E-02  8.39E-02  8.40E-02
 res:  6.75E-17  3.66E-17  2.49E-17  3.79E-17  3.03E-17  8.25E-17  6.60E-17  1.93E-17
 res:  5.27E-17  4.50E-17  6.76E-17  8.85E-17  7.13E-17  8.25E-17  2.75E-17  4.36E-17
 res:  7.24E-17  3.62E-17  4.62E-17  6.72E-17  8.01E-17  6.10E-17  5.84E-17  5.61E-17
 res:  3.52E-17  8.15E-17  2.92E-13  1.45E-12  9.44E-14  1.79E-13  2.36E-07  2.16E-06
 ene: -2.16E+00 -2.16E+00 -1.35E+00 -1.35E+00 -1.25E+00 -1.25E+00 -1.24E+00 -1.24E+00
 ene: -5.54E-01 -5.54E-01 -5.05E-01 -5.05E-01 -2.43E-01 -2.43E-01 -1.33E-01 -1.33E-01
 ene: -1.29E-01 -1.29E-01 -1.00E-01 -1.00E-01 -8.93E-02 -8.93E-02 -8.74E-02 -8.74E-02
 ene: -3.71E-02 -3.71E-02  7.31E-02  7.31E-02  7.44E-02  7.44E-02  8.39E-02  8.40E-02
 res:  3.53E-17  6.87E-17  3.32E-17  2.96E-17  8.56E-17  2.72E-17  6.61E-17  1.93E-17
 res:  3.98E-17  5.79E-17  9.09E-17  6.52E-17  6.72E-17  8.67E-17  2.83E-17  4.27E-17
 res:  7.28E-17  3.58E-17  4.86E-17  6.48E-17  8.26E-17  5.85E-17  8.66E-17  2.79E-17
 res:  6.20E-17  5.46E-17  1.18E-13  1.22E-12  5.23E-14  1.16E-13  3.98E-07  1.89E-06
 ene: -2.16E+00 -2.16E+00 -1.35E+00 -1.35E+00 -1.25E+00 -1.25E+00 -1.24E+00 -1.24E+00
 ene: -5.54E-01 -5.54E-01 -5.05E-01 -5.05E-01 -2.43E-01 -2.43E-01 -1.33E-01 -1.33E-01
 ene: -1.29E-01 -1.29E-01 -1.00E-01 -1.00E-01 -8.93E-02 -8.93E-02 -8.74E-02 -8.74E-02
 ene: -3.71E-02 -3.71E-02  7.31E-02  7.31E-02  7.44E-02  7.44E-02  8.39E-02  8.40E-02
 res:  3.00E-17  7.41E-17  2.87E-17  3.42E-17  2.75E-17  8.53E-17  2.21E-17  6.33E-17
 res:  4.21E-17  5.56E-17  6.78E-17  8.83E-17  8.70E-17  6.69E-17  3.95E-17  3.15E-17
 res:  7.25E-17  3.60E-17  6.71E-17  4.63E-17  4.81E-17  9.30E-17  3.28E-17  8.17E-17
 res:  3.79E-17  7.88E-17  1.32E-13  6.64E-13  4.56E-14  7.51E-14  2.04E-07  1.94E-06
 ene: -2.16E+00 -2.16E+00 -1.35E+00 -1.35E+00 -1.25E+00 -1.25E+00 -1.24E+00 -1.24E+00
 ene: -5.54E-01 -5.54E-01 -5.05E-01 -5.05E-01 -2.43E-01 -2.43E-01 -1.33E-01 -1.33E-01
 ene: -1.29E-01 -1.29E-01 -1.00E-01 -1.00E-01 -8.93E-02 -8.93E-02 -8.74E-02 -8.74E-02
 ene: -3.71E-02 -3.71E-02  7.31E-02  7.31E-02  7.44E-02  7.44E-02  8.39E-02  8.40E-02
 res:  6.06E-17  4.35E-17  2.74E-17  3.54E-17  8.53E-17  2.75E-17  1.84E-17  6.70E-17
 res:  4.52E-17  5.25E-17  8.03E-17  7.58E-17  6.60E-17  8.78E-17  3.31E-17  3.79E-17
 res:  6.93E-17  3.92E-17  6.84E-17  4.51E-17  7.29E-17  6.82E-17  8.75E-17  2.70E-17
 res:  8.92E-17  2.74E-17  5.30E-14  5.57E-13  2.59E-14  4.80E-14  3.43E-07  1.70E-06
 ene: -2.16E+00 -2.16E+00 -1.35E+00 -1.35E+00 -1.25E+00 -1.25E+00 -1.24E+00 -1.24E+00
 ene: -5.54E-01 -5.54E-01 -5.05E-01 -5.05E-01 -2.43E-01 -2.43E-01 -1.33E-01 -1.33E-01
 ene: -1.29E-01 -1.29E-01 -1.00E-01 -1.00E-01 -8.93E-02 -8.93E-02 -8.74E-02 -8.74E-02
 ene: -3.71E-02 -3.71E-02  7.31E-02  7.31E-02  7.44E-02  7.44E-02  8.39E-02  8.40E-02
 res:  3.45E-17  6.95E-17  2.71E-17  3.58E-17  2.83E-17  8.45E-17  2.06E-17  6.48E-17
 res:  5.22E-17  4.55E-17  9.15E-17  6.46E-17  7.03E-17  8.36E-17  3.74E-17  3.36E-17
 res:  3.68E-17  7.18E-17  6.32E-17  5.02E-17  6.99E-17  7.12E-17  8.67E-17  2.78E-17
 res:  3.21E-17  8.46E-17  5.97E-14  3.03E-13  2.22E-14  3.15E-14  1.76E-07  1.74E-06
 ene: -2.16E+00 -2.16E+00 -1.35E+00 -1.35E+00 -1.25E+00 -1.25E+00 -1.24E+00 -1.24E+00
 ene: -5.54E-01 -5.54E-01 -5.05E-01 -5.05E-01 -2.43E-01 -2.43E-01 -1.33E-01 -1.33E-01
 ene: -1.29E-01 -1.29E-01 -1.00E-01 -1.00E-01 -8.93E-02 -8.93E-02 -8.74E-02 -8.74E-02
 ene: -3.71E-02 -3.71E-02  7.31E-02  7.31E-02  7.44E-02  7.44E-02  8.39E-02  8.40E-02
 res:  7.06E-17  3.34E-17  2.66E-17  3.63E-17  8.34E-17  2.94E-17  3.49E-17  5.04E-17
 res:  5.29E-17  4.48E-17  9.01E-17  6.60E-17  6.31E-17  9.07E-17  2.69E-17  4.41E-17
 res:  7.10E-17  3.75E-17  5.37E-17  5.97E-17  7.34E-17  6.77E-17  2.73E-17  8.73E-17
 res:  8.05E-17  3.62E-17  2.39E-14  2.54E-13  1.27E-14  1.98E-14  2.95E-07  1.52E-06
 ene: -2.16E+00 -2.16E+00 -1.35E+00 -1.35E+00 -1.25E+00 -1.25E+00 -1.24E+00 -1.24E+00
 ene: -5.54E-01 -5.54E-01 -5.05E-01 -5.05E-01 -2.43E-01 -2.43E-01 -1.33E-01 -1.33E-01
 ene: -1.29E-01 -1.29E-01 -1.00E-01 -1.00E-01 -8.93E-02 -8.93E-02 -8.74E-02 -8.74E-02
 ene: -3.71E-02 -3.71E-02  7.31E-02  7.31E-02  7.44E-02  7.44E-02  8.39E-02  8.40E-02
 res:  2.97E-17  7.43E-17  2.55E-17  3.73E-17  8.63E-17  2.65E-17  3.27E-17  5.27E-17
 res:  5.07E-17  4.70E-17  6.87E-17  8.74E-17  6.71E-17  8.67E-17  3.84E-17  3.26E-17
 res:  4.36E-17  6.49E-17  6.58E-17  4.76E-17  8.42E-17  5.69E-17  2.83E-17  8.62E-17
 res:  7.92E-17  3.75E-17  2.70E-14  1.38E-13  1.09E-14  1.31E-14  1.52E-07  1.55E-06
 ene: -2.16E+00 -2.16E+00 -1.35E+00 -1.35E+00 -1.25E+00 -1.25E+00 -1.24E+00 -1.24E+00
 ene: -5.54E-01 -5.54E-01 -5.05E-01 -5.05E-01 -2.43E-01 -2.43E-01 -1.33E-01 -1.33E-01
 ene: -1.29E-01 -1.29E-01 -1.00E-01 -1.00E-01 -8.93E-02 -8.93E-02 -8.74E-02 -8.74E-02
 ene: -3.71E-02 -3.71E-02  7.31E-02  7.31E-02  7.44E-02  7.44E-02  8.39E-02  8.40E-02
 res:  8.62E-17  1.79E-17  2.18E-17  4.10E-17  6.03E-17  5.25E-17  5.96E-17  2.58E-17
 res:  5.16E-17  4.61E-17  7.51E-17  8.11E-17  7.87E-17  7.51E-17  3.83E-17  3.27E-17
 res:  6.65E-17  4.21E-17  6.17E-17  5.17E-17  8.29E-17  5.82E-17  2.72E-17  8.73E-17
 res:  3.66E-17  8.01E-17  1.07E-14  1.16E-13  6.72E-15  7.70E-15  2.55E-07  1.36E-06
 ene: -2.16E+00 -2.16E+00 -1.35E+00 -1.35E+00 -1.25E+00 -1.25E+00 -1.24E+00 -1.24E+00
 ene: -5.54E-01 -5.54E-01 -5.05E-01 -5.05E-01 -2.43E-01 -2.43E-01 -1.33E-01 -1.33E-01
 ene: -1.29E-01 -1.29E-01 -1.00E-01 -1.00E-01 -8.93E-02 -8.93E-02 -8.74E-02 -8.74E-02
 ene: -3.71E-02 -3.71E-02  7.31E-02  7.31E-02  7.44E-02  7.44E-02  8.39E-02  8.40E-02
 res:  1.76E-17  8.64E-17  4.04E-17  2.25E-17  2.71E-17  8.57E-17  6.26E-17  2.28E-17
 res:  5.63E-17  4.13E-17  7.14E-17  8.47E-17  6.56E-17  8.83E-17  3.81E-17  3.29E-17
 res:  3.73E-17  7.12E-17  6.06E-17  5.28E-17  4.95E-17  9.16E-17  4.35E-17  7.11E-17
 res:  4.76E-17  6.91E-17  1.22E-14  6.29E-14  7.02E-15  4.92E-15  1.31E-07  1.39E-06
 ene: -2.16E+00 -2.16E+00 -1.35E+00 -1.35E+00 -1.25E+00 -1.25E+00 -1.24E+00 -1.24E+00
 ene: -5.54E-01 -5.54E-01 -5.05E-01 -5.05E-01 -2.43E-01 -2.43E-01 -1.33E-01 -1.33E-01
 ene: -1.29E-01 -1.29E-01 -1.00E-01 -1.00E-01 -8.93E-02 -8.93E-02 -8.74E-02 -8.74E-02
 ene: -3.71E-02 -3.71E-02  7.31E-02  7.31E-02  7.44E-02  7.44E-02  8.39E-02  8.40E-02
 res:  8.99E-17  1.41E-17  2.51E-17  3.77E-17  2.77E-17  8.51E-17  2.11E-17  6.43E-17
 res:  5.58E-17  4.18E-17  6.79E-17  8.82E-17  6.35E-17  9.04E-17  3.25E-17  3.85E-17
 res:  5.48E-17  5.37E-17  4.52E-17  6.82E-17  4.82E-17  9.29E-17  2.73E-17  8.72E-17
 res:  6.72E-17  4.94E-17  4.83E-15  5.27E-14  2.88E-15  3.75E-15  2.19E-07  1.22E-06
 ene: -2.16E+00 -2.16E+00 -1.35E+00 -1.35E+00 -1.25E+00 -1.25E+00 -1.24E+00 -1.24E+00
 ene: -5.54E-01 -5.54E-01 -5.05E-01 -5.05E-01 -2.43E-01 -2.43E-01 -1.33E-01 -1.33E-01
 ene: -1.29E-01 -1.29E-01 -1.00E-01 -1.00E-01 -8.93E-02 -8.93E-02 -8.74E-02 -8.74E-02
 ene: -3.71E-02 -3.71E-02  7.31E-02  7.31E-02  7.44E-02  7.44E-02  8.39E-02  8.40E-02
 res:  5.64E-17  4.76E-17  3.92E-17  2.37E-17  2.80E-17  8.48E-17  2.13E-17  6.41E-17
 res:  4.14E-17  5.63E-17  9.43E-17  6.18E-17  7.07E-17  8.31E-17  3.70E-17  3.40E-17
 res:  4.70E-17  6.15E-17  6.47E-17  4.88E-17  9.04E-17  5.07E-17  3.19E-17  8.26E-17
 res:  3.59E-17  8.08E-17  5.50E-15  2.86E-14  3.13E-15  2.35E-15  1.13E-07  1.24E-06
 ene: -2.16E+00 -2.16E+00 -1.35E+00 -1.35E+00 -1.25E+00 -1.25E+00 -1.24E+00 -1.24E+00
 ene: -5.54E-01 -5.54E-01 -5.05E-01 -5.05E-01 -2.43E-01 -2.43E-01 -1.33E-01 -1.33E-01
 ene: -1.29E-01 -1.29E-01 -1.00E-01 -1.00E-01 -8.93E-02 -8.93E-02 -8.74E-02 -8.74E-02
 ene: -3.71E-02 -3.71E-02  7.31E-02  7.31E-02  7.44E-02  7.44E-02  8.39E-02  8.40E-02
 res:  4.96E-17  5.44E-17  2.24E-17  4.04E-17  2.69E-17  8.59E-17  6.68E-17  1.85E-17
 res:  4.12E-17  5.64E-17  6.11E-17  9.51E-17  7.86E-17  7.52E-17  3.48E-17  3.63E-17
 res:  5.92E-17  4.94E-17  4.48E-17  6.87E-17  7.05E-17  7.06E-17  2.80E-17  8.65E-17
 res:  2.95E-17  8.72E-17  2.17E-15  2.40E-14  1.29E-15  1.58E-15  1.89E-07  1.08E-06
 ene: -2.16E+00 -2.16E+00 -1.35E+00 -1.35E+00 -1.25E+00 -1.25E+00 -1.24E+00 -1.24E+00
 ene: -5.54E-01 -5.54E-01 -5.05E-01 -5.05E-01 -2.43E-01 -2.43E-01 -1.33E-01 -1.33E-01
 ene: -1.29E-01 -1.29E-01 -1.00E-01 -1.00E-01 -8.93E-02 -8.93E-02 -8.74E-02 -8.74E-02
 ene: -3.71E-02 -3.71E-02  7.31E-02  7.31E-02  7.44E-02  7.44E-02  8.39E-02  8.40E-02
 res:  6.30E-17  4.10E-17  2.23E-17  4.06E-17  8.48E-17  2.80E-17  1.84E-17  6.70E-17
 res:  4.10E-17  5.67E-17  8.06E-17  7.55E-17  7.84E-17  7.55E-17  3.59E-17  3.51E-17
 res:  4.43E-17  6.42E-17  6.78E-17  4.56E-17  7.15E-17  6.96E-17  4.64E-17  6.81E-17
 res:  5.42E-17  6.25E-17  2.49E-15  1.30E-14  8.56E-16  1.08E-15  9.74E-08  1.10E-06
 ene: -2.16E+00 -2.16E+00 -1.35E+00 -1.35E+00 -1.25E+00 -1.25E+00 -1.24E+00 -1.24E+00
 ene: -5.54E-01 -5.54E-01 -5.05E-01 -5.05E-01 -2.43E-01 -2.43E-01 -1.33E-01 -1.33E-01
 ene: -1.29E-01 -1.29E-01 -1.00E-01 -1.00E-01 -8.93E-02 -8.93E-02 -8.74E-02 -8.74E-02
 ene: -3.71E-02 -3.71E-02  7.31E-02  7.31E-02  7.44E-02  7.44E-02  8.39E-02  8.40E-02
 res:  4.60E-17  5.81E-17  4.10E-17  2.19E-17  2.84E-17  8.44E-17  4.30E-17  4.24E-17
 res:  4.15E-17  5.62E-17  8.54E-17  7.07E-17  7.50E-17  7.88E-17  3.59E-17  3.51E-17
 res:  7.02E-17  3.83E-17  6.13E-17  5.21E-17  6.82E-17  7.29E-17  8.72E-17  2.73E-17
 res:  8.23E-17  3.44E-17  9.74E-16  1.09E-14  7.23E-16  5.34E-16  1.63E-07  9.67E-07
 ene: -2.16E+00 -2.16E+00 -1.35E+00 -1.35E+00 -1.25E+00 -1.25E+00 -1.24E+00 -1.24E+00
 ene: -5.54E-01 -5.54E-01 -5.05E-01 -5.05E-01 -2.43E-01 -2.43E-01 -1.33E-01 -1.33E-01
 ene: -1.29E-01 -1.29E-01 -1.00E-01 -1.00E-01 -8.93E-02 -8.93E-02 -8.74E-02 -8.74E-02
 ene: -3.71E-02 -3.71E-02  7.31E-02  7.31E-02  7.44E-02  7.44E-02  8.39E-02  8.39E-02
 res:  7.68E-17  2.73E-17  2.53E-17  3.75E-17  2.93E-17  8.35E-17  2.34E-17  6.20E-17
 res:  5.57E-17  4.19E-17  6.76E-17  8.85E-17  7.53E-17  7.85E-17  3.63E-17  3.47E-17
 res:  4.47E-17  6.38E-17  4.73E-17  6.61E-17  6.03E-17  8.08E-17  7.19E-17  4.27E-17
 res:  2.84E-17  8.82E-17  1.12E-15  5.92E-15  5.79E-16  5.50E-16  8.40E-08  9.83E-07
 ene: -2.16E+00 -2.16E+00 -1.35E+00 -1.35E+00 -1.25E+00 -1.25E+00 -1.24E+00 -1.24E+00
 ene: -5.54E-01 -5.54E-01 -5.05E-01 -5.05E-01 -2.43E-01 -2.43E-01 -1.33E-01 -1.33E-01
 ene: -1.29E-01 -1.29E-01 -1.00E-01 -1.00E-01 -8.93E-02 -8.93E-02 -8.74E-02 -8.74E-02
 ene: -3.71E-02 -3.71E-02  7.31E-02  7.31E-02  7.44E-02  7.44E-02  8.39E-02  8.39E-02
 res:  2.30E-17  8.10E-17  3.22E-17  3.06E-17  2.89E-17  8.39E-17  6.25E-17  2.28E-17
 res:  4.58E-17  5.19E-17  7.59E-17  8.02E-17  6.91E-17  8.48E-17  2.79E-17  4.31E-17
 res:  3.58E-17  7.28E-17  6.76E-17  4.59E-17  6.24E-17  7.87E-17  2.99E-17  8.46E-17
 res:  7.63E-17  4.04E-17  4.40E-16  4.96E-15  4.02E-16  2.65E-16  1.40E-07  8.61E-07
 ene: -2.16E+00 -2.16E+00 -1.35E+00 -1.35E+00 -1.25E+00 -1.25E+00 -1.24E+00 -1.24E+00
 ene: -5.54E-01 -5.54E-01 -5.05E-01 -5.05E-01 -2.43E-01 -2.43E-01 -1.33E-01 -1.33E-01
 ene: -1.29E-01 -1.29E-01 -1.00E-01 -1.00E-01 -8.93E-02 -8.93E-02 -8.74E-02 -8.74E-02
 ene: -3.71E-02 -3.71E-02  7.31E-02  7.31E-02  7.44E-02  7.44E-02  8.39E-02  8.39E-02
 res:  7.95E-17  2.45E-17  2.37E-17  3.92E-17  4.55E-17  6.73E-17  6.38E-17  2.16E-17
 res:  5.49E-17  4.27E-17  7.82E-17  7.79E-17  7.02E-17  8.36E-17  3.87E-17  3.23E-17
 res:  7.31E-17  3.55E-17  6.52E-17  4.82E-17  6.44E-17  7.67E-17  7.81E-17  3.64E-17
 res:  5.76E-17  5.91E-17  5.10E-16  2.69E-15  1.31E-16  1.93E-16  7.24E-08  8.74E-07
 ene: -2.16E+00 -2.16E+00 -1.35E+00 -1.35E+00 -1.25E+00 -1.25E+00 -1.24E+00 -1.24E+00
 ene: -5.54E-01 -5.54E-01 -5.05E-01 -5.05E-01 -2.43E-01 -2.43E-01 -1.33E-01 -1.33E-01
 ene: -1.29E-01 -1.29E-01 -1.00E-01 -1.00E-01 -8.93E-02 -8.93E-02 -8.74E-02 -8.74E-02
 ene: -3.71E-02 -3.71E-02  7.31E-02  7.31E-02  7.44E-02  7.44E-02  8.39E-02  8.39E-02
 res:  2.61E-17  7.79E-17  2.34E-17  3.94E-17  6.08E-17  5.20E-17  2.33E-17  6.21E-17
 res:  5.72E-17  4.05E-17  7.66E-17  7.95E-17  7.28E-17  8.10E-17  3.64E-17  3.46E-17
 res:  7.09E-17  3.76E-17  4.55E-17  6.79E-17  7.16E-17  6.95E-17  8.32E-17  3.13E-17
 res:  8.18E-17  3.49E-17  1.97E-16  2.25E-15  8.93E-17  8.93E-17  1.21E-07  7.66E-07
 ene: -2.16E+00 -2.16E+00 -1.35E+00 -1.35E+00 -1.25E+00 -1.25E+00 -1.24E+00 -1.24E+00
 ene: -5.54E-01 -5.54E-01 -5.05E-01 -5.05E-01 -2.43E-01 -2.43E-01 -1.33E-01 -1.33E-01
 ene: -1.29E-01 -1.29E-01 -1.00E-01 -1.00E-01 -8.93E-02 -8.93E-02 -8.74E-02 -8.74E-02
 ene: -3.71E-02 -3.71E-02  7.31E-02  7.31E-02  7.44E-02  7.44E-02  8.39E-02  8.39E-02
 res:  8.50E-17  1.91E-17  2.46E-17  3.82E-17  5.17E-17  6.11E-17  6.50E-17  2.04E-17
 res:  5.86E-17  3.90E-17  7.74E-17  7.87E-17  6.85E-17  8.53E-17  3.00E-17  4.10E-17
 res:  7.07E-17  3.78E-17  4.58E-17  6.76E-17  7.83E-17  6.28E-17  3.60E-17  7.85E-17
 res:  8.17E-17  3.50E-17  2.26E-16  1.22E-15  9.66E-17  8.20E-17  6.25E-08  7.77E-07
 ene: -2.16E+00 -2.16E+00 -1.35E+00 -1.35E+00 -1.25E+00 -1.25E+00 -1.24E+00 -1.24E+00
 ene: -5.54E-01 -5.54E-01 -5.05E-01 -5.05E-01 -2.43E-01 -2.43E-01 -1.33E-01 -1.33E-01
 ene: -1.29E-01 -1.29E-01 -1.00E-01 -1.00E-01 -8.93E-02 -8.93E-02 -8.74E-02 -8.74E-02
 ene: -3.71E-02 -3.71E-02  7.31E-02  7.31E-02  7.44E-02  7.44E-02  8.39E-02  8.39E-02
 res:  8.97E-17  1.43E-17  3.81E-17  2.47E-17  6.50E-17  4.79E-17  6.37E-17  2.17E-17
 res:  5.82E-17  3.95E-17  7.59E-17  8.02E-17  6.60E-17  8.79E-17  3.20E-17  3.90E-17
 res:  7.28E-17  3.58E-17  5.01E-17  6.34E-17  7.58E-17  6.54E-17  8.49E-17  2.96E-17
 res:  2.81E-17  8.86E-17  9.02E-17  1.02E-15  1.52E-16  7.32E-17  1.04E-07  6.81E-07
 ene: -2.16E+00 -2.16E+00 -1.35E+00 -1.35E+00 -1.25E+00 -1.25E+00 -1.24E+00 -1.24E+00
 ene: -5.54E-01 -5.54E-01 -5.05E-01 -5.05E-01 -2.43E-01 -2.43E-01 -1.33E-01 -1.33E-01
 ene: -1.29E-01 -1.29E-01 -1.00E-01 -1.00E-01 -8.93E-02 -8.93E-02 -8.74E-02 -8.74E-02
 ene: -3.71E-02 -3.71E-02  7.31E-02  7.31E-02  7.44E-02  7.44E-02  8.39E-02  8.39E-02
 res:  1.41E-17  8.99E-17  3.68E-17  2.61E-17  7.57E-17  3.71E-17  2.24E-17  6.30E-17
 res:  5.80E-17  3.97E-17  7.82E-17  7.79E-17  6.24E-17  9.14E-17  3.54E-17  3.56E-17
 res:  3.64E-17  7.22E-17  6.88E-17  4.46E-17  6.18E-17  7.93E-17  8.41E-17  3.04E-17
 res:  8.56E-17  3.11E-17  8.51E-17  5.54E-16  7.91E-17  6.41E-17  5.39E-08  6.90E-07
 ene: -2.16E+00 -2.16E+00 -1.35E+00 -1.35E+00 -1.25E+00 -1.25E+00 -1.24E+00 -1.24E+00
 ene: -5.54E-01 -5.54E-01 -5.05E-01 -5.05E-01 -2.43E-01 -2.43E-01 -1.33E-01 -1.33E-01
 ene: -1.29E-01 -1.29E-01 -1.00E-01 -1.00E-01 -8.93E-02 -8.93E-02 -8.74E-02 -8.74E-02
 ene: -3.71E-02 -3.71E-02  7.31E-02  7.31E-02  7.44E-02  7.44E-02  8.39E-02  8.39E-02
 res:  9.01E-17  1.39E-17  2.52E-17  3.76E-17  4.68E-17  6.60E-17  2.74E-17  5.80E-17
 res:  5.74E-17  4.03E-17  8.64E-17  6.97E-17  6.36E-17  9.02E-17  3.48E-17  3.63E-17
 res:  3.68E-17  7.18E-17  5.75E-17  5.59E-17  6.47E-17  7.64E-17  3.60E-17  7.86E-17
 res:  3.55E-17  8.12E-17  9.71E-17  4.62E-16  4.29E-17  3.97E-17  8.98E-08  6.05E-07
 ene: -2.16E+00 -2.16E+00 -1.35E+00 -1.35E+00 -1.25E+00 -1.25E+00 -1.24E+00 -1.24E+00
 ene: -5.54E-01 -5.54E-01 -5.05E-01 -5.05E-01 -2.43E-01 -2.43E-01 -1.33E-01 -1.33E-01
 ene: -1.29E-01 -1.29E-01 -1.00E-01 -1.00E-01 -8.93E-02 -8.93E-02 -8.74E-02 -8.74E-02
 ene: -3.71E-02 -3.71E-02  7.31E-02  7.31E-02  7.44E-02  7.44E-02  8.39E-02  8.39E-02
 res:  7.32E-17  3.08E-17  2.60E-17  3.68E-17  3.09E-17  8.19E-17  6.15E-17  2.39E-17
 res:  5.85E-17  3.92E-17  9.41E-17  6.20E-17  6.32E-17  9.07E-17  3.61E-17  3.49E-17
 res:  6.10E-17  4.75E-17  4.66E-17  6.68E-17  6.71E-17  7.40E-17  2.74E-17  8.71E-17
 res:  8.07E-17  3.60E-17  7.55E-17  2.58E-16  4.88E-17  3.38E-17  4.65E-08  6.13E-07
 ene: -2.16E+00 -2.16E+00 -1.35E+00 -1.35E+00 -1.25E+00 -1.25E+00 -1.24E+00 -1.24E+00
 ene: -5.54E-01 -5.54E-01 -5.05E-01 -5.05E-01 -2.43E-01 -2.43E-01 -1.33E-01 -1.33E-01
 ene: -1.29E-01 -1.29E-01 -1.00E-01 -1.00E-01 -8.93E-02 -8.93E-02 -8.74E-02 -8.74E-02
 ene: -3.71E-02 -3.71E-02  7.31E-02  7.31E-02  7.44E-02  7.44E-02  8.39E-02  8.39E-02
 res:  2.15E-17  8.26E-17  4.10E-17  2.18E-17  3.25E-17  8.03E-17  5.48E-17  3.06E-17
 res:  5.72E-17  4.04E-17  7.57E-17  8.04E-17  6.55E-17  8.84E-17  3.34E-17  3.76E-17
 res:  4.22E-17  6.64E-17  5.24E-17  6.10E-17  6.24E-17  7.87E-17  3.73E-17  7.72E-17
 res:  3.21E-17  8.46E-17  7.89E-17  2.05E-16  4.43E-17  3.83E-17  7.74E-08  5.37E-07
 ene: -2.16E+00 -2.16E+00 -1.35E+00 -1.35E+00 -1.25E+00 -1.25E+00 -1.24E+00 -1.24E+00
 ene: -5.54E-01 -5.54E-01 -5.05E-01 -5.05E-01 -2.43E-01 -2.43E-01 -1.33E-01 -1.33E-01
 ene: -1.29E-01 -1.29E-01 -1.00E-01 -1.00E-01 -8.93E-02 -8.93E-02 -8.74E-02 -8.74E-02
 ene: -3.71E-02 -3.71E-02  7.31E-02  7.31E-02  7.44E-02  7.44E-02  8.39E-02  8.39E-02
 res:  7.51E-17  2.89E-17  2.17E-17  4.11E-17  3.44E-17  7.84E-17  4.49E-17  4.05E-17
 res:  4.08E-17  5.69E-17  7.97E-17  7.65E-17  6.32E-17  9.06E-17  3.41E-17  3.69E-17
 res:  4.13E-17  6.73E-17  5.55E-17  5.79E-17  5.89E-17  8.22E-17  8.04E-17  3.42E-17
 res:  8.28E-17  3.39E-17  7.19E-17  1.65E-16  3.78E-17  4.48E-17  4.01E-08  5.43E-07
 ene: -2.16E+00 -2.16E+00 -1.35E+00 -1.35E+00 -1.25E+00 -1.25E+00 -1.24E+00 -1.24E+00
 ene: -5.54E-01 -5.54E-01 -5.05E-01 -5.05E-01 -2.43E-01 -2.43E-01 -1.33E-01 -1.33E-01
 ene: -1.29E-01 -1.29E-01 -1.00E-01 -1.00E-01 -8.93E-02 -8.93E-02 -8.74E-02 -8.74E-02
 ene: -3.71E-02 -3.71E-02  7.31E-02  7.31E-02  7.44E-02  7.44E-02  8.39E-02  8.39E-02
 res:  7.34E-17  3.07E-17  4.18E-17  2.11E-17  8.10E-17  3.18E-17  3.08E-17  5.46E-17
 res:  4.13E-17  5.64E-17  7.73E-17  7.88E-17  8.66E-17  6.72E-17  3.30E-17  3.80E-17
 res:  3.88E-17  6.98E-17  5.26E-17  6.08E-17  7.10E-17  7.01E-17  8.62E-17  2.83E-17
 res:  8.39E-17  3.28E-17  6.50E-17  5.82E-17  4.69E-17  3.57E-17  6.67E-08  4.76E-07
 ene: -2.16E+00 -2.16E+00 -1.35E+00 -1.35E+00 -1.25E+00 -1.25E+00 -1.24E+00 -1.24E+00
 ene: -5.54E-01 -5.54E-01 -5.05E-01 -5.05E-01 -2.43E-01 -2.43E-01 -1.33E-01 -1.33E-01
 ene: -1.29E-01 -1.29E-01 -1.00E-01 -1.00E-01 -8.93E-02 -8.93E-02 -8.74E-02 -8.74E-02
 ene: -3.71E-02 -3.71E-02  7.31E-02  7.31E-02  7.44E-02  7.44E-02  8.39E-02  8.39E-02
     eigenvalues (hartree) for   32  bands
              after   80 non-SCF iterations with    4 CG line minimizations
 -2.1630E+00 -2.1630E+00 -1.3471E+00 -1.3471E+00 -1.2523E+00 -1.2523E+00
 -1.2440E+00 -1.2440E+00 -5.5380E-01 -5.5380E-01 -5.0453E-01 -5.0453E-01
 -2.4306E-01 -2.4306E-01 -1.3286E-01 -1.3286E-01 -1.2949E-01 -1.2949E-01
 -1.0032E-01 -1.0032E-01 -8.9331E-02 -8.9331E-02 -8.7357E-02 -8.7357E-02
 -3.7105E-02 -3.7105E-02  7.3147E-02  7.3147E-02  7.4447E-02  7.4447E-02
  8.3890E-02  8.3916E-02
      mean kinetic energy (hartree) for    32   bands
              after   80 non-SCF iterations with    4 CG line minimizations
  1.0798E+00  1.0798E+00  1.8976E+00  1.8976E+00  1.7661E+00  1.7661E+00
  1.8202E+00  1.8202E+00  3.7237E-01  3.7237E-01  4.8620E-01  4.8620E-01
  7.0487E-01  7.0487E-01  1.4059E+00  1.4059E+00  1.3780E+00  1.3780E+00
  7.3678E-01  7.3678E-01  1.5151E+00  1.5151E+00  1.4967E+00  1.4967E+00
  1.4594E+00  1.4594E+00  1.5494E+00  1.5494E+00  1.5524E+00  1.5524E+00
  1.5396E+00  1.5395E+00
      mean non-local energy (hartree) for    32   bands
              after   80 non-SCF iterations with    4 CG line minimizations
 -7.6889E-01 -7.6889E-01 -9.2852E-01 -9.2852E-01 -7.6502E-01 -7.6502E-01
 -7.8220E-01 -7.8220E-01  3.5815E-01  3.5815E-01  4.0267E-01  4.0267E-01
  6.5316E-02  6.5316E-02 -1.3681E-01 -1.3681E-01 -1.1579E-01 -1.1579E-01
  2.4274E-01  2.4274E-01 -8.8130E-02 -8.8130E-02 -7.3250E-02 -7.3250E-02
[...]
 res:  8.55E-17  4.09E-17  6.61E-17  6.16E-17  8.74E-17  5.43E-17  7.67E-17  4.44E-17
 res:  6.76E-17  7.76E-17  6.23E-17  3.26E-17  4.49E-17  9.32E-17  9.28E-17  8.55E-17
 res:  8.08E-17  6.40E-17  4.92E-13  8.68E-13  1.03E-10  1.12E-10  4.88E-07  2.21E-07
 ene: -2.16E+00 -2.16E+00 -1.35E+00 -1.35E+00 -1.26E+00 -1.26E+00 -1.25E+00 -1.25E+00
 ene: -4.71E-01 -4.70E-01 -4.70E-01 -4.68E-01 -2.41E-01 -2.40E-01 -2.04E-01 -2.04E-01
 ene: -1.89E-01 -1.85E-01 -1.64E-01 -1.63E-01 -1.40E-01 -1.40E-01 -1.14E-01 -1.13E-01
 ene: -3.74E-02 -3.25E-02  3.28E-02  3.29E-02  7.70E-02  7.87E-02  1.01E-01  1.06E-01
 res:  2.63E-17  4.28E-17  5.31E-17  2.71E-17  2.22E-17  2.92E-17  2.00E-17  9.93E-17
 res:  8.55E-17  4.09E-17  6.61E-17  6.16E-17  8.74E-17  5.43E-17  7.67E-17  4.44E-17
 res:  6.76E-17  7.76E-17  6.23E-17  3.26E-17  4.49E-17  9.32E-17  9.28E-17  8.55E-17
 res:  8.08E-17  6.40E-17  6.80E-14  1.32E-13  1.69E-11  3.87E-11  1.64E-07  8.23E-08
 ene: -2.16E+00 -2.16E+00 -1.35E+00 -1.35E+00 -1.26E+00 -1.26E+00 -1.25E+00 -1.25E+00
 ene: -4.71E-01 -4.70E-01 -4.70E-01 -4.68E-01 -2.41E-01 -2.40E-01 -2.04E-01 -2.04E-01
 ene: -1.89E-01 -1.85E-01 -1.64E-01 -1.63E-01 -1.40E-01 -1.40E-01 -1.14E-01 -1.13E-01
 ene: -3.74E-02 -3.25E-02  3.28E-02  3.29E-02  7.70E-02  7.87E-02  1.01E-01  1.06E-01
 res:  4.25E-17  2.66E-17  5.31E-17  2.71E-17  2.22E-17  2.92E-17  2.00E-17  9.93E-17
 res:  8.55E-17  4.09E-17  6.61E-17  6.16E-17  8.74E-17  5.43E-17  7.67E-17  4.44E-17
 res:  6.76E-17  7.76E-17  6.23E-17  3.26E-17  4.49E-17  9.32E-17  9.28E-17  8.55E-17
 res:  8.08E-17  6.40E-17  7.12E-15  1.24E-14  4.26E-12  4.31E-12  5.72E-08  3.07E-08
 ene: -2.16E+00 -2.16E+00 -1.35E+00 -1.35E+00 -1.26E+00 -1.26E+00 -1.25E+00 -1.25E+00
 ene: -4.71E-01 -4.70E-01 -4.70E-01 -4.68E-01 -2.41E-01 -2.40E-01 -2.04E-01 -2.04E-01
 ene: -1.89E-01 -1.85E-01 -1.64E-01 -1.63E-01 -1.40E-01 -1.40E-01 -1.14E-01 -1.13E-01
 ene: -3.74E-02 -3.25E-02  3.28E-02  3.29E-02  7.70E-02  7.87E-02  1.01E-01  1.06E-01
 res:  2.75E-17  4.15E-17  5.31E-17  2.71E-17  2.22E-17  2.92E-17  2.00E-17  9.93E-17
 res:  8.55E-17  4.09E-17  6.61E-17  6.16E-17  8.74E-17  5.43E-17  7.67E-17  4.44E-17
 res:  6.76E-17  7.76E-17  6.23E-17  3.26E-17  4.49E-17  9.32E-17  9.28E-17  8.55E-17
 res:  8.08E-17  6.40E-17  9.92E-16  1.90E-15  7.09E-13  1.51E-12  1.93E-08  1.15E-08
 ene: -2.16E+00 -2.16E+00 -1.35E+00 -1.35E+00 -1.26E+00 -1.26E+00 -1.25E+00 -1.25E+00
 ene: -4.71E-01 -4.70E-01 -4.70E-01 -4.68E-01 -2.41E-01 -2.40E-01 -2.04E-01 -2.04E-01
 ene: -1.89E-01 -1.85E-01 -1.64E-01 -1.63E-01 -1.40E-01 -1.40E-01 -1.14E-01 -1.13E-01
 ene: -3.74E-02 -3.25E-02  3.28E-02  3.29E-02  7.70E-02  7.87E-02  1.01E-01  1.06E-01
 res:  4.25E-17  2.65E-17  5.31E-17  2.71E-17  2.22E-17  2.92E-17  2.00E-17  9.93E-17
 res:  8.55E-17  4.09E-17  6.61E-17  6.16E-17  8.74E-17  5.43E-17  7.67E-17  4.44E-17
 res:  6.76E-17  7.76E-17  6.23E-17  3.26E-17  4.49E-17  9.32E-17  9.28E-17  8.55E-17
 res:  8.08E-17  6.40E-17  1.04E-16  1.79E-16  1.80E-13  1.69E-13  6.73E-09  4.30E-09
 ene: -2.16E+00 -2.16E+00 -1.35E+00 -1.35E+00 -1.26E+00 -1.26E+00 -1.25E+00 -1.25E+00
 ene: -4.71E-01 -4.70E-01 -4.70E-01 -4.68E-01 -2.41E-01 -2.40E-01 -2.04E-01 -2.04E-01
 ene: -1.89E-01 -1.85E-01 -1.64E-01 -1.63E-01 -1.40E-01 -1.40E-01 -1.14E-01 -1.13E-01
 ene: -3.74E-02 -3.25E-02  3.28E-02  3.29E-02  7.70E-02  7.87E-02  1.01E-01  1.06E-01
 res:  2.82E-17  4.09E-17  5.31E-17  2.71E-17  2.22E-17  2.92E-17  2.00E-17  9.93E-17
 res:  8.55E-17  4.09E-17  6.61E-17  6.16E-17  8.74E-17  5.43E-17  7.67E-17  4.44E-17
 res:  6.76E-17  7.76E-17  6.23E-17  3.26E-17  4.49E-17  9.32E-17  9.28E-17  8.55E-17
 res:  8.08E-17  6.40E-17  4.08E-17  7.51E-17  3.02E-14  5.99E-14  2.29E-09  1.61E-09
 ene: -2.16E+00 -2.16E+00 -1.35E+00 -1.35E+00 -1.26E+00 -1.26E+00 -1.25E+00 -1.25E+00
 ene: -4.71E-01 -4.70E-01 -4.70E-01 -4.68E-01 -2.41E-01 -2.40E-01 -2.04E-01 -2.04E-01
 ene: -1.89E-01 -1.85E-01 -1.64E-01 -1.63E-01 -1.40E-01 -1.40E-01 -1.14E-01 -1.13E-01
 ene: -3.74E-02 -3.25E-02  3.28E-02  3.29E-02  7.70E-02  7.87E-02  1.01E-01  1.06E-01
     eigenvalues (hartree) for   32  bands
              after   19 non-SCF iterations with    4 CG line minimizations
 -2.1620E+00 -2.1620E+00 -1.3530E+00 -1.3518E+00 -1.2584E+00 -1.2560E+00
 -1.2541E+00 -1.2534E+00 -4.7065E-01 -4.6965E-01 -4.6950E-01 -4.6760E-01
 -2.4109E-01 -2.4026E-01 -2.0408E-01 -2.0406E-01 -1.8869E-01 -1.8460E-01
 -1.6378E-01 -1.6268E-01 -1.3978E-01 -1.3975E-01 -1.1356E-01 -1.1266E-01
 -3.7410E-02 -3.2508E-02  3.2787E-02  3.2942E-02  7.7002E-02  7.8716E-02
  1.0123E-01  1.0616E-01
      mean kinetic energy (hartree) for    32   bands
              after   19 non-SCF iterations with    4 CG line minimizations
  1.0952E+00  1.0952E+00  1.8589E+00  1.8691E+00  1.7236E+00  1.7436E+00
  1.7561E+00  1.7621E+00  6.2251E-01  5.9059E-01  5.8951E-01  6.3420E-01
  8.7051E-01  8.6288E-01  7.6145E-01  7.6113E-01  7.0471E-01  7.1978E-01
  9.5632E-01  9.8359E-01  7.7499E-01  7.7763E-01  1.1113E+00  1.1028E+00
  1.6934E+00  1.6616E+00  1.9985E+00  1.9993E+00  1.6243E+00  1.6237E+00
  2.0442E+00  2.0436E+00
      mean non-local energy (hartree) for    32   bands
              after   19 non-SCF iterations with    4 CG line minimizations
 -7.7445E-01 -7.7445E-01 -9.1557E-01 -9.2009E-01 -7.5146E-01 -7.5986E-01
 -7.6255E-01 -7.6506E-01  4.3712E-01  4.6928E-01  4.7047E-01  4.4022E-01
  2.7944E-02  3.2708E-02  1.1638E-01  1.1656E-01  9.3905E-02  9.4596E-02
  1.4131E-01  1.2780E-01  1.9969E-01  1.9899E-01  1.3984E-01  1.4542E-01
 -2.6626E-01 -2.4960E-01 -3.7062E-01 -3.7052E-01 -2.0548E-01 -2.0370E-01
 -2.7816E-01 -2.7731E-01
   1  1  1  1  1  1  1  1  1  1  1  1
   2  3  3  2  2  3  3  2  2  3  3  2
   3  2  2  3  3  2  2  3  3  2  2  3
 ioarr: writing density data
ioarr: file name is io_files/MoS2_single-layer_nscf_o_DEN
ioarr: data written to disk file io_files/MoS2_single-layer_nscf_o_DEN

======================================================================
 Calculating and writing out Kohn-Sham electronic Structure file
 Using conjugate gradient wavefunctions and energies (kssform=3)

 outkss : COMMENT - 
 At least one NC pseudopotential has more that one projector per angular channel

 Sorting g-vecs for an output of states on an unique "big" PW basis.

 remove_inversion: WARNING - 
 Removing inversion related symmetrie from initial set
 The inversion was not found in the symmetries list.
 Program uses the original set of symmetries
 Since the number of g's to be written on file
 was 0 or too large, it has been set to the max. value.,
 computed from the union of the sets of G vectors for the different k-points.
 Number of g-vectors written on file is:  3281
 Number of bands written on file is:    32

 Total amount of disk space required by _KSS file =    24.57 Mb.
  Subdivided into : 
  Header             =     0.04 Mb.
  KB elements        =     2.10 Mb.
  Wavefunctions (PW) =    22.43 Mb.
  PAW projectors     =     0.00 Mb.


 Opening file for KS structure output: io_files/MoS2_single-layer_nscf_o_KSS
 number of Gamma centered plane waves   3281
 number of Gamma centered shells    393
 number of bands     32
 maximum angular momentum components      3
 number of symmetry operations 12 (without inversion)

 k-point   1
 Eigenvalues in Hartree for ikpt=   1
   1     -2.1630 -2.1630 -1.3471 -1.3471 -1.2523 -1.2523 -1.2440 -1.2440 -0.5538
         -0.5538 -0.5045 -0.5045 -0.2431 -0.2431 -0.1329 -0.1329 -0.1295 -0.1295
         -0.1003 -0.1003 -0.0893 -0.0893 -0.0874 -0.0874 -0.0371 -0.0371  0.0731
          0.0731  0.0744  0.0744  0.0839  0.0839
 Writing out eigenvalues/vectors for ikpt=  1
 Occupation numbers for ikpt=  1
   1      1.0000  1.0000  1.0000  1.0000  1.0000  1.0000  1.0000  1.0000  1.0000
          1.0000  1.0000  1.0000  1.0000  1.0000  1.0000  1.0000  1.0000  1.0000
          1.0000  1.0000  1.0000  1.0000  1.0000  1.0000  1.0000  1.0000  0.0000
          0.0000  0.0000  0.0000  0.0000  0.0000

 k-point   2
 Eigenvalues in Hartree for ikpt=   2
   2     -2.1606 -2.1606 -1.3481 -1.3481 -1.2527 -1.2527 -1.2466 -1.2466 -0.5380
         -0.5380 -0.4983 -0.4983 -0.2279 -0.2279 -0.1577 -0.1577 -0.1444 -0.1444
         -0.1146 -0.1146 -0.1095 -0.1095 -0.0705 -0.0705 -0.0461 -0.0461  0.0532
          0.0532  0.0648  0.0648  0.0695  0.0695
 Writing out eigenvalues/vectors for ikpt=  2
 Occupation numbers for ikpt=  2
   2      1.0000  1.0000  1.0000  1.0000  1.0000  1.0000  1.0000  1.0000  1.0000
          1.0000  1.0000  1.0000  1.0000  1.0000  1.0000  1.0000  1.0000  1.0000
          1.0000  1.0000  1.0000  1.0000  1.0000  1.0000  1.0000  1.0000  0.0000
          0.0000  0.0000  0.0000  0.0000  0.0000

 k-point   3
 Eigenvalues in Hartree for ikpt=   3
   3     -2.1634 -2.1634 -1.3508 -1.3508 -1.2564 -1.2564 -1.2499 -1.2499 -0.5023
         -0.5023 -0.4844 -0.4844 -0.2314 -0.2314 -0.1923 -0.1923 -0.1750 -0.1750
         -0.1404 -0.1404 -0.0924 -0.0924 -0.0804 -0.0804 -0.0707 -0.0707  0.0510
          0.0510  0.0547  0.0547  0.0951  0.0951
 Writing out eigenvalues/vectors for ikpt=  3
 Occupation numbers for ikpt=  3
   3      1.0000  1.0000  1.0000  1.0000  1.0000  1.0000  1.0000  1.0000  1.0000
          1.0000  1.0000  1.0000  1.0000  1.0000  1.0000  1.0000  1.0000  1.0000
          1.0000  1.0000  1.0000  1.0000  1.0000  1.0000  1.0000  1.0000  0.0000
          0.0000  0.0000  0.0000  0.0000  0.0000

 k-point   4
 Eigenvalues in Hartree for ikpt=   4
   4     -2.1620 -2.1620 -1.3520 -1.3520 -1.2588 -1.2588 -1.2503 -1.2503 -0.4800
         -0.4800 -0.4761 -0.4761 -0.2497 -0.2497 -0.2148 -0.2148 -0.1864 -0.1864
         -0.1525 -0.1525 -0.1028 -0.1028 -0.0644 -0.0644 -0.0553 -0.0553  0.0526
          0.0526  0.0728  0.0728  0.1120  0.1120
 Writing out eigenvalues/vectors for ikpt=  4
 Occupation numbers for ikpt=  4
   4      1.0000  1.0000  1.0000  1.0000  1.0000  1.0000  1.0000  1.0000  1.0000
          1.0000  1.0000  1.0000  1.0000  1.0000  1.0000  1.0000  1.0000  1.0000
          1.0000  1.0000  1.0000  1.0000  1.0000  1.0000  1.0000  1.0000  0.0000
          0.0000  0.0000  0.0000  0.0000  0.0000

 k-point   5
 Eigenvalues in Hartree for ikpt=   5
   5     -2.1620 -2.1620 -1.3502 -1.3498 -1.2548 -1.2547 -1.2500 -1.2495 -0.5125
         -0.5117 -0.4880 -0.4879 -0.2207 -0.2197 -0.1731 -0.1725 -0.1703 -0.1701
         -0.1548 -0.1539 -0.1062 -0.1035 -0.0682 -0.0681 -0.0651 -0.0627  0.0368
          0.0396  0.0612  0.0618  0.0665  0.0680
 Writing out eigenvalues/vectors for ikpt=  5
 Occupation numbers for ikpt=  5
   5      1.0000  1.0000  1.0000  1.0000  1.0000  1.0000  1.0000  1.0000  1.0000
          1.0000  1.0000  1.0000  1.0000  1.0000  1.0000  1.0000  1.0000  1.0000
          1.0000  1.0000  1.0000  1.0000  1.0000  1.0000  1.0000  1.0000  0.0000
          0.0000  0.0000  0.0000  0.0000  0.0000

 k-point   6
 Eigenvalues in Hartree for ikpt=   6
   6     -2.1624 -2.1624 -1.3523 -1.3515 -1.2582 -1.2572 -1.2517 -1.2516 -0.4817
         -0.4798 -0.4754 -0.4752 -0.2330 -0.2327 -0.2200 -0.2194 -0.1750 -0.1746
         -0.1544 -0.1540 -0.1200 -0.1172 -0.0953 -0.0951 -0.0538 -0.0502  0.0507
          0.0517  0.0727  0.0768  0.0915  0.0921
 Writing out eigenvalues/vectors for ikpt=  6
 Occupation numbers for ikpt=  6
   6      1.0000  1.0000  1.0000  1.0000  1.0000  1.0000  1.0000  1.0000  1.0000
          1.0000  1.0000  1.0000  1.0000  1.0000  1.0000  1.0000  1.0000  1.0000
          1.0000  1.0000  1.0000  1.0000  1.0000  1.0000  1.0000  1.0000  0.0000
          0.0000  0.0000  0.0000  0.0000  0.0000

 k-point   7
 Eigenvalues in Hartree for ikpt=   7
   7     -2.1620 -2.1620 -1.3530 -1.3518 -1.2584 -1.2560 -1.2541 -1.2534 -0.4706
         -0.4697 -0.4695 -0.4676 -0.2411 -0.2403 -0.2041 -0.2041 -0.1887 -0.1846
         -0.1638 -0.1627 -0.1398 -0.1397 -0.1136 -0.1127 -0.0374 -0.0325  0.0328
          0.0329  0.0770  0.0787  0.1012  0.1062
 Writing out eigenvalues/vectors for ikpt=  7
 Occupation numbers for ikpt=  7
   7      1.0000  1.0000  1.0000  1.0000  1.0000  1.0000  1.0000  1.0000  1.0000
          1.0000  1.0000  1.0000  1.0000  1.0000  1.0000  1.0000  1.0000  1.0000
          1.0000  1.0000  1.0000  1.0000  1.0000  1.0000  1.0000  1.0000  0.0000
          0.0000  0.0000  0.0000  0.0000  0.0000
 Test on the normalization of the wavefunctions
  min sum_G |a(n,k,G)| =  1.000000
  max sum_G |a(n,k,G)| =  1.000000
 Test on the orthogonalization of the wavefunctions
  min sum_G a(n,k,G)a(n',k,G) =  0.000000
  max sum_G a(n,k,G)a(n',k,G) =  0.498934

================================================================================

 ----iterations are completed or convergence reached----


 outwf: write wavefunction to file io_files/MoS2_single-layer_nscf_o_WFK, with accesswff -1
 leave_test : synchronization done...
 outwf with iomode: -1, cpu:     0.05, wall:     0.05

 === Gap info ===
  >>>> For spin  1
   Minimum optical gap =   1.7768 [eV], located at k-point      :   0.3333  0.3333  0.0000
   Fundamental gap     =   1.7768 [eV], Top of valence bands at :   0.3333  0.3333  0.0000
                                        Bottom of conduction at :   0.3333  0.3333  0.0000

== END DATASET(S) ==============================================================
================================================================================
  
 -outvars: echo values of variables after computation  --------
            acell      5.9203808995E+00  5.9203808994E+00  3.0000000000E+01 Bohr
              amu      9.59400000E+01  3.20660000E+01
           diemac      4.50000000E+00
             ecut      1.50000000E+01 Hartree
           irdden           1
             iscf          -2
           istwfk        1    0    0    1    0    0    0
              kpt      0.00000000E+00  0.00000000E+00  0.00000000E+00
                       1.66666667E-01  0.00000000E+00  0.00000000E+00
                       3.33333333E-01  0.00000000E+00  0.00000000E+00
                       5.00000000E-01  0.00000000E+00  0.00000000E+00
                       1.66666667E-01  1.66666667E-01  0.00000000E+00
                       3.33333333E-01  1.66666667E-01  0.00000000E+00
                       3.33333333E-01  3.33333333E-01  0.00000000E+00
         kptrlatt        6    0    0      0    6    0      0    0    1
          kptrlen      3.55222854E+01
          kssform           3
P           mkmem           7
            natom           3
            nband          32
         nbandkss          32
           nbdbuf           4
            ngfft          24      24     108
             nkpt           7
          nspinor           2
            nstep         100
             nsym          12
           ntypat           2
           prtvol           3
            rprim      1.0000000000E+00  0.0000000000E+00  0.0000000000E+00
                      -5.0000000000E-01  8.6602540378E-01  0.0000000000E+00
                       0.0000000000E+00  0.0000000000E+00  1.0000000000E+00
           so_psp           2       2
          spgroup         187
        symmorphi           0
           symrel      1  0  0   0  1  0   0  0  1       0 -1  0  -1  0  0   0  0 -1
                      -1 -1  0   1  0  0   0  0 -1      -1  0  0   1  1  0   0  0  1
                       0  1  0  -1 -1  0   0  0  1       1  1  0   0 -1  0   0  0 -1
                       1  0  0   0  1  0   0  0 -1       0 -1  0  -1  0  0   0  0  1
                      -1 -1  0   1  0  0   0  0  1      -1  0  0   1  1  0   0  0 -1
                       0  1  0  -1 -1  0   0  0 -1       1  1  0   0 -1  0   0  0  1
           tolwfr      1.00000000E-16
            typat      1  2  2
              wtk        0.02778    0.16667    0.16667    0.08333    0.16667    0.33333
                         0.05556
           xangst     -1.6313257281E-29  0.0000000000E+00  4.4712094400E-21
                       1.5664653191E+00  9.0439917363E-01  1.5521205663E+00
                       1.5664653191E+00  9.0439917363E-01 -1.5521205663E+00
            xcart     -3.0827588597E-29  0.0000000000E+00  8.4493613244E-21
                       2.9601904498E+00  1.7090667530E+00  2.9330827955E+00
                       2.9601904498E+00  1.7090667530E+00 -2.9330827955E+00
             xred     -5.2070279127E-30  0.0000000000E+00  2.8164537748E-22
                       6.6666666667E-01  3.3333333333E-01  9.7769426517E-02
                       6.6666666667E-01  3.3333333333E-01 -9.7769426517E-02
            znucl       42.00000   16.00000

================================================================================
  

================================================================================

 Suggested references for the acknowledgment of ABINIT usage.

 The users of ABINIT have little formal obligations with respect to the ABINIT group
 (those specified in the GNU General Public License, http://www.gnu.org/copyleft/gpl.txt).
 However, it is common practice in the scientific literature,
 to acknowledge the efforts of people that have made the research possible.
 In this spirit, please find below suggested citations of work written by ABINIT developers,
 corresponding to implementations inside of ABINIT that you have used in the present run.
 Note also that it will be of great value to readers of publications presenting these results,
 to read papers enabling them to understand the theoretical formalism and details
 of the ABINIT implementation.
 For information on why they are suggested, see also http://www.abinit.org/about/?text=acknowledgments.

 [1] ABINIT : First-principles approach of materials and nanosystem properties.
 X. Gonze, B. Amadon, P.-M. Anglade, J.-M. Beuken, F. Bottin, P. Boulanger, F. Bruneval,
 D. Caliste, R. Caracas, M. Cote, T. Deutsch, L. Genovese, Ph. Ghosez, M. Giantomassi
 S. Goedecker, D.R. Hamann, P. Hermet, F. Jollet, G. Jomard, S. Leroux, M. Mancini, S. Mazevet,
 M.J.T. Oliveira, G. Onida, Y. Pouillon, T. Rangel, G.-M. Rignanese, D. Sangalli, R. Shaltaf,
 M. Torrent, M.J. Verstraete, G. Zerah, J.W. Zwanziger
 Computer Phys. Comm. 180, 2582-2615 (2009).
 Comment : the third generic paper describing the ABINIT project.
 Note that a version of this paper, that is not formatted for Computer Phys. Comm. 
 is available at http://www.abinit.org/about/ABINIT_CPC_v10.pdf .
 The licence allows the authors to put it on the Web.

 [2] A brief introduction to the ABINIT software package.
 X. Gonze, G.-M. Rignanese, M. Verstraete, J.-M. Beuken, Y. Pouillon, R. Caracas, F. Jollet,
 M. Torrent, G. Zerah, M. Mikami, Ph. Ghosez, M. Veithen, J.-Y. Raty, V. Olevano, F. Bruneval,
 L. Reining, R. Godby, G. Onida, D.R. Hamann, and D.C. Allan.
 Z. Kristallogr. 220, 558-562 (2005).
 Comment : the second generic paper describing the ABINIT project. Note that this paper
 should be cited especially if you are using the GW part of ABINIT, as several authors
 of this part are not in the list of authors of the first or third paper.
 The .pdf of the latter paper is available at http://www.abinit.org/about/zfk_0505-06_558-562.pdf.
 Note that it should not redistributed (Copyright by Oldenburg Wissenshaftverlag,
 the licence allows the authors to put it on the Web).


 And optionally :

 [3] First-principles computation of material properties : the ABINIT software project. 
 X. Gonze, J.-M. Beuken, R. Caracas, F. Detraux, M. Fuchs, G.-M. Rignanese, L. Sindic,
 M. Verstraete, G. Zerah, F. Jollet, M. Torrent, A. Roy, M. Mikami, Ph. Ghosez, J.-Y. Raty, D.C. Allan.
 Computational Materials Science 25, 478-492 (2002). http://dx.doi.org/10.1016/S0927-0256(02)00325-7
 Comment : the original paper describing the ABINIT project.

 [4] Fast radix 2, 3, 4 and 5 kernels for Fast Fourier Transformations
 on computers with overlapping multiply-add instructions.
 S. Goedecker, SIAM J. on Scientific Computing 18, 1605 (1997).
 Proc.   0 individual time (sec): cpu=        165.4  wall=        165.5

 Calculation completed.
.Delivered    3 WARNINGs and   5 COMMENTs to log file.
