
     Program PWSCF v.5.0.2 (svn rev. 10042M) starts on 22Mar2013 at 18:16:53 

     This program is part of the open-source Quantum ESPRESSO suite
     for quantum simulation of materials; please cite
         "P. Giannozzi et al., J. Phys.:Condens. Matter 21 395502 (2009);
          URL http://www.quantum-espresso.org", 
     in publications or presentations arising from this work. More details at
     http://www.quantum-espresso.org/quote.php

     Parallel version (MPI), running on     1 processors

     Current dimensions of program PWSCF are:
     Max number of different atomic species (ntypx) = 10
     Max number of k-points (npk) =  40000
     Max angular momentum in pseudopotentials (lmaxx) =  3
     Waiting for input...
     Reading input from standard input
     Message from routine read_cards :
     DEPRECATED: no units specified in ATOMIC_POSITIONS card
     Message from routine read_cards :
     ATOMIC_POSITIONS: units set to alat

     Fixed quantization axis for GGA:     0.000000    0.000000    1.000000

     Subspace diagonalization in iterative solution of the eigenvalue problem:
     a serial algorithm will be used


     G-vector sticks info
     --------------------
     sticks:   dense  smooth     PW     G-vecs:    dense   smooth      PW
     Sum         499     499    163                 7391     7391    1411

     Generating pointlists ...
     new r_m :   0.2917 (alat units)  1.9572 (a.u.) for type    1


     bravais-lattice index     =            2
     lattice parameter (alat)  =       6.7100  a.u.
     unit-cell volume          =      75.5279 (a.u.)^3
     number of atoms/cell      =            1
     number of atomic types    =            1
     number of electrons       =         9.00
     number of Kohn-Sham states=           20
     kinetic-energy cutoff     =      80.0000  Ry
     charge density cutoff     =     320.0000  Ry
     convergence threshold     =      1.0E-08
     mixing beta               =       0.7000
     number of iterations used =            8  plain     mixing
     Exchange-correlation      = PBE ( 1 4 3 4 0)
     EXX-fraction              =        0.00
     Noncollinear calculation with spin-orbit


     celldm(1)=   6.710000  celldm(2)=   0.000000  celldm(3)=   0.000000
     celldm(4)=   0.000000  celldm(5)=   0.000000  celldm(6)=   0.000000

     crystal axes: (cart. coord. in units of alat)
               a(1) = (  -0.500000   0.000000   0.500000 )  
               a(2) = (   0.000000   0.500000   0.500000 )  
               a(3) = (  -0.500000   0.500000   0.000000 )  

     reciprocal axes: (cart. coord. in units 2 pi/alat)
               b(1) = ( -1.000000 -1.000000  1.000000 )  
               b(2) = (  1.000000  1.000000  1.000000 )  
               b(3) = ( -1.000000  1.000000 -1.000000 )  


     PseudoPot. # 1 for Co read from file:
     ./Co.rel-pbe-n-nc.UPF
     MD5 check sum: cf18e6af80e097bf1711d5969da64263
     Pseudo is Norm-conserving + core correction, Zval =  9.0
     Generated using "atomic" code by A. Dal Corso  (Quantum ESPRESSO distribution)
     Using radial grid of 1193 points,  4 beta functions with: 
                l(1) =   1
                l(2) =   1
                l(3) =   2
                l(4) =   2

     atomic species   valence    mass     pseudopotential
        Co             9.00    58.93000     Co( 1.00)

     16 Sym. Ops., with inversion, found



   Cartesian axes

     site n.     atom                  positions (alat units)
         1           Co  tau(   1) = (   0.0000000   0.0000000   0.0000000  )

     number of k points=   144  Methfessel-Paxton smearing, width (Ry)=  0.0200

     Number of k-points >= 100: set verbosity='high' to print them.

     Dense  grid:     7391 G-vectors     FFT dimensions: (  27,  27,  27)

     Largest allocated arrays     est. size (Mb)     dimensions
        Kohn-Sham Wavefunctions         0.57 Mb     (    1856,   20)
        NL pseudopotentials             0.23 Mb     (     928,   16)
        Each V/rho on FFT grid          0.30 Mb     (   19683)
        Each G-vector array             0.06 Mb     (    7391)
        G-vector shells                 0.00 Mb     (     125)
     Largest temporary arrays     est. size (Mb)     dimensions
        Auxiliary wavefunctions         2.27 Mb     (    1856,   80)
        Each subspace H/S matrix        0.10 Mb     (      80,   80)
        Each <psi_i|beta_j> matrix      0.01 Mb     (      16,   2,   20)
        Arrays for rho mixing           2.40 Mb     (   19683,    8)

     Check: negative/imaginary core charge=   -0.000260    0.000000

     Initial potential from superposition of free atoms

     starting charge    8.99971, renormalised to    9.00000

 ==============================================================================
     atom number    1 relative position :    0.0000   0.0000   0.0000
     charge :     7.679974
     magnetization :          0.000000    0.000000    5.375982
     magnetization/charge:    0.000000    0.000000    0.700000
     polar coord.: r, theta, phi [deg] :     5.375982    0.000000  360.000000

 ==============================================================================
     Starting wfc are   18 randomized atomic wfcs

     total cpu time spent up to now is       23.1 secs

     per-process dynamical memory:    15.0 Mb

     Self-consistent Calculation

     iteration #  1     ecut=    80.00 Ry     beta=0.70
     Davidson diagonalization with overlap
     ethr =  1.00E-02,  avg # of iterations =  4.4

 ==============================================================================
     atom number    1 relative position :    0.0000   0.0000   0.0000
     charge :     7.595063
     magnetization :          0.000000   -0.000000    3.301954
     magnetization/charge:    0.000000   -0.000000    0.434750
     polar coord.: r, theta, phi [deg] :     3.301954    0.000000  360.000000

 ==============================================================================

     total cpu time spent up to now is      117.6 secs

     total energy              =     -73.71286776 Ry
     Harris-Foulkes estimate   =     -73.55334698 Ry
     estimated scf accuracy    <       0.14947806 Ry

     total magnetization       =     0.00    -0.00     2.45 Bohr mag/cell
     absolute magnetization    =     2.46 Bohr mag/cell

     iteration #  2     ecut=    80.00 Ry     beta=0.70
     Davidson diagonalization with overlap
     ethr =  1.66E-03,  avg # of iterations =  1.1

 ==============================================================================
     atom number    1 relative position :    0.0000   0.0000   0.0000
     charge :     7.682242
     magnetization :          0.000000    0.000000    2.413054
     magnetization/charge:    0.000000    0.000000    0.314108
     polar coord.: r, theta, phi [deg] :     2.413054    0.000000  360.000000

 ==============================================================================

     total cpu time spent up to now is      177.5 secs

     total energy              =     -73.75819387 Ry
     Harris-Foulkes estimate   =     -73.73978560 Ry
     estimated scf accuracy    <       0.04932695 Ry

     total magnetization       =    -0.00    -0.00     2.00 Bohr mag/cell
     absolute magnetization    =     2.05 Bohr mag/cell

     iteration #  3     ecut=    80.00 Ry     beta=0.70
     Davidson diagonalization with overlap
     ethr =  5.48E-04,  avg # of iterations =  1.8

 ==============================================================================
     atom number    1 relative position :    0.0000   0.0000   0.0000
     charge :     7.658974
     magnetization :          0.000000    0.000000    1.793472
     magnetization/charge:    0.000000    0.000000    0.234166
     polar coord.: r, theta, phi [deg] :     1.793472    0.000000  360.000000

 ==============================================================================

     total cpu time spent up to now is      238.6 secs

     total energy              =     -73.77213594 Ry
     Harris-Foulkes estimate   =     -73.77198063 Ry
     estimated scf accuracy    <       0.01489737 Ry

     total magnetization       =     0.00     0.00     1.89 Bohr mag/cell
     absolute magnetization    =     1.99 Bohr mag/cell

     iteration #  4     ecut=    80.00 Ry     beta=0.70
     Davidson diagonalization with overlap
     ethr =  1.66E-04,  avg # of iterations =  1.4

 ==============================================================================
     atom number    1 relative position :    0.0000   0.0000   0.0000
     charge :     7.659868
     magnetization :          0.000000   -0.000000    1.771478
     magnetization/charge:    0.000000   -0.000000    0.231267
     polar coord.: r, theta, phi [deg] :     1.771478    0.000000  360.000000

 ==============================================================================

     total cpu time spent up to now is      298.6 secs

     total energy              =     -73.77586707 Ry
     Harris-Foulkes estimate   =     -73.77584581 Ry
     estimated scf accuracy    <       0.00008373 Ry

     total magnetization       =     0.00    -0.00     1.71 Bohr mag/cell
     absolute magnetization    =     1.86 Bohr mag/cell

     iteration #  5     ecut=    80.00 Ry     beta=0.70
     Davidson diagonalization with overlap
     ethr =  9.30E-07,  avg # of iterations =  3.8

 ==============================================================================
     atom number    1 relative position :    0.0000   0.0000   0.0000
     charge :     7.662659
     magnetization :         -0.000000    0.000000    1.763350
     magnetization/charge:   -0.000000    0.000000    0.230123
     polar coord.: r, theta, phi [deg] :     1.763350    0.000000  360.000000

 ==============================================================================

     total cpu time spent up to now is      386.3 secs

     total energy              =     -73.77590883 Ry
     Harris-Foulkes estimate   =     -73.77590309 Ry
     estimated scf accuracy    <       0.00001763 Ry

     total magnetization       =     0.00     0.00     1.70 Bohr mag/cell
     absolute magnetization    =     1.85 Bohr mag/cell

     iteration #  6     ecut=    80.00 Ry     beta=0.70
     Davidson diagonalization with overlap
     ethr =  1.96E-07,  avg # of iterations =  2.0

 ==============================================================================
     atom number    1 relative position :    0.0000   0.0000   0.0000
     charge :     7.661967
     magnetization :         -0.000000    0.000000    1.762996
     magnetization/charge:   -0.000000    0.000000    0.230097
     polar coord.: r, theta, phi [deg] :     1.762996    0.000000  360.000000

 ==============================================================================

     total cpu time spent up to now is      461.9 secs

     total energy              =     -73.77591976 Ry
     Harris-Foulkes estimate   =     -73.77592022 Ry
     estimated scf accuracy    <       0.00000209 Ry

     total magnetization       =    -0.00    -0.00     1.70 Bohr mag/cell
     absolute magnetization    =     1.84 Bohr mag/cell

     iteration #  7     ecut=    80.00 Ry     beta=0.70
     Davidson diagonalization with overlap
     ethr =  2.33E-08,  avg # of iterations =  2.5

 ==============================================================================
     atom number    1 relative position :    0.0000   0.0000   0.0000
     charge :     7.661834
     magnetization :          0.000000    0.000000    1.762152
     magnetization/charge:    0.000000    0.000000    0.229991
     polar coord.: r, theta, phi [deg] :     1.762152    0.000000  360.000000

 ==============================================================================

     total cpu time spent up to now is      544.6 secs

     total energy              =     -73.77591929 Ry
     Harris-Foulkes estimate   =     -73.77592034 Ry
     estimated scf accuracy    <       0.00000009 Ry

     total magnetization       =     0.00    -0.00     1.70 Bohr mag/cell
     absolute magnetization    =     1.84 Bohr mag/cell

     iteration #  8     ecut=    80.00 Ry     beta=0.70
     Davidson diagonalization with overlap
     ethr =  9.55E-10,  avg # of iterations =  3.9

 ==============================================================================
     atom number    1 relative position :    0.0000   0.0000   0.0000
     charge :     7.661833
     magnetization :          0.000000    0.000000    1.761912
     magnetization/charge:    0.000000    0.000000    0.229960
     polar coord.: r, theta, phi [deg] :     1.761912    0.000000  360.000000

 ==============================================================================

     total cpu time spent up to now is      649.3 secs

     End of self-consistent calculation

     Number of k-points >= 100: set verbosity='high' to print the bands.

     the Fermi energy is    14.8785 ev

!    total energy              =     -73.77591925 Ry
     Harris-Foulkes estimate   =     -73.77591967 Ry
     estimated scf accuracy    <          4.7E-09 Ry

     The total energy is the sum of the following terms:

     one-electron contribution =       6.74650712 Ry
     hartree contribution      =       8.79853720 Ry
     xc contribution           =     -33.97437522 Ry
     ewald contribution        =     -55.34632310 Ry
     smearing contrib. (-TS)   =      -0.00026524 Ry

     total magnetization       =     0.00     0.00     1.70 Bohr mag/cell
     absolute magnetization    =     1.84 Bohr mag/cell

     convergence has been achieved in   8 iterations

     Forces acting on atoms (Ry/au):

     atom    1 type  1   force =     0.00000000    0.00000000    0.00000000

     Total force =     0.000000     Total SCF correction =     0.000000


     entering subroutine stress ...

     Message from routine stres:
     noncollinear stress + GGA not implemented

     Writing output data file Co_e80_k8_nb30_so.save

     init_run     :     23.58s CPU     22.83s WALL (       1 calls)
     electrons    :    636.57s CPU    626.25s WALL (       1 calls)
     forces       :      2.98s CPU      3.24s WALL (       1 calls)

     Called by init_run:
     wfcinit      :     22.65s CPU     21.89s WALL (       1 calls)
     potinit      :      0.16s CPU      0.17s WALL (       1 calls)

     Called by electrons:
     c_bands      :    533.12s CPU    520.99s WALL (       8 calls)
     sum_band     :    102.03s CPU    103.81s WALL (       8 calls)
     v_of_rho     :      1.24s CPU      1.25s WALL (       9 calls)
     mix_rho      :      0.20s CPU      0.19s WALL (       8 calls)

     Called by c_bands:
     init_us_2    :      2.40s CPU      3.04s WALL (    2592 calls)
     cegterg      :    525.51s CPU    511.07s WALL (    1152 calls)

     Called by *egterg:
     h_psi        :    439.33s CPU    440.12s WALL (    4291 calls)
     g_psi        :      2.87s CPU      2.88s WALL (    2995 calls)
     cdiaghg      :     13.70s CPU     13.85s WALL (    4147 calls)

     Called by h_psi:
     add_vuspsi   :     11.64s CPU      9.78s WALL (    4291 calls)

     General routines
     calbec       :     14.61s CPU     12.74s WALL (    4435 calls)
     fft          :      0.47s CPU      0.46s WALL (     274 calls)
     fftw         :    392.80s CPU    396.47s WALL (  295916 calls)
     davcio       :      2.06s CPU      3.46s WALL (    3888 calls)

     Parallel routines
     fft_scatter  :     39.15s CPU     39.43s WALL (  296190 calls)

     PWSCF        : 11m 5.10s CPU    10m55.16s WALL


   This run was terminated on:  18:27:48  22Mar2013            

=------------------------------------------------------------------------------=
   JOB DONE.
=------------------------------------------------------------------------------=
