
     Program PWSCF v.6.6 starts on 11Dec2020 at 16: 9:52 

     This program is part of the open-source Quantum ESPRESSO suite
     for quantum simulation of materials; please cite
         "P. Giannozzi et al., J. Phys.:Condens. Matter 21 395502 (2009);
         "P. Giannozzi et al., J. Phys.:Condens. Matter 29 465901 (2017);
          URL http://www.quantum-espresso.org", 
     in publications or presentations arising from this work. More details at
     http://www.quantum-espresso.org/quote

     Parallel version (MPI), running on     1 processors

     MPI processes distributed on     1 nodes
     Fft bands division:     nmany     =       1
     Waiting for input...
     Reading input from standard input

     Current dimensions of program PWSCF are:
     Max number of different atomic species (ntypx) = 10
     Max number of k-points (npk) =  40000
     Max angular momentum in pseudopotentials (lmaxx) =  3

     Subspace diagonalization in iterative solution of the eigenvalue problem:
     a serial algorithm will be used


     G-vector sticks info
     --------------------
     sticks:   dense  smooth     PW     G-vecs:    dense   smooth      PW
     Sum        2677    2677    733               350177   350177   49579



     bravais-lattice index     =            4
     lattice parameter (alat)  =      12.6872  a.u.
     unit-cell volume          =    5575.9936 (a.u.)^3
     number of atoms/cell      =            8
     number of atomic types    =            2
     number of electrons       =        70.00 (up:  38.00, down:  32.00)
     number of Kohn-Sham states=           38
     kinetic-energy cutoff     =      60.0000  Ry
     charge density cutoff     =     240.0000  Ry
     convergence threshold     =      1.0E-08
     mixing beta               =       0.7000
     number of iterations used =            8  plain     mixing
     Exchange-correlation= PZ
                           (   1   1   0   0   0   0   0)

     celldm(1)=  12.687201  celldm(2)=   0.000000  celldm(3)=   3.152784
     celldm(4)=   0.000000  celldm(5)=   0.000000  celldm(6)=   0.000000

     crystal axes: (cart. coord. in units of alat)
               a(1) = (   1.000000   0.000000   0.000000 )  
               a(2) = (  -0.500000   0.866025   0.000000 )  
               a(3) = (   0.000000   0.000000   3.152784 )  

     reciprocal axes: (cart. coord. in units 2 pi/alat)
               b(1) = (  1.000000  0.577350 -0.000000 )  
               b(2) = (  0.000000  1.154701  0.000000 )  
               b(3) = (  0.000000 -0.000000  0.317180 )  


     PseudoPot. # 1 for Cr read from file:
     ../../psps/Cr.upf
     MD5 check sum: b32cdf955d2375499d0ea06d1493a96a
     Pseudo is Norm-conserving + core correction, Zval = 14.0
     Generated using ONCVPSP code by D. R. Hamann
     Using radial grid of 1600 points,  6 beta functions with: 
                l(1) =   0
                l(2) =   0
                l(3) =   1
                l(4) =   1
                l(5) =   2
                l(6) =   2

     PseudoPot. # 2 for I  read from file:
     ../../psps/I.upf
     MD5 check sum: d0d4d45a39a9ecd37d4d9deb6bd296a3
     Pseudo is Norm-conserving + core correction, Zval =  7.0
     Generated using ONCVPSP code by D. R. Hamann
     Using radial grid of 1196 points,  6 beta functions with: 
                l(1) =   0
                l(2) =   0
                l(3) =   1
                l(4) =   1
                l(5) =   2
                l(6) =   2

     atomic species   valence    mass     pseudopotential
        Cr            14.00    51.99000     Cr( 1.00)
        I              7.00   126.90000     I ( 1.00)

     Starting magnetic structure 
     atomic species   magnetization
        Cr           1.000
        I            0.000

     12 Sym. Ops., with inversion, found


                                    s                        frac. trans.

      isym =  1     identity                                     

 cryst.   s( 1) = (     1          0          0      )
                  (     0          1          0      )
                  (     0          0          1      )

 cart.    s( 1) = (  1.0000000  0.0000000  0.0000000 )
                  (  0.0000000  1.0000000  0.0000000 )
                  (  0.0000000  0.0000000  1.0000000 )


      isym =  2     180 deg rotation - cart. axis [0,1,0]        

 cryst.   s( 2) = (    -1          0          0      )
                  (     1          1          0      )
                  (     0          0         -1      )

 cart.    s( 2) = ( -1.0000000  0.0000000  0.0000000 )
                  (  0.0000000  1.0000000  0.0000000 )
                  (  0.0000000  0.0000000 -1.0000000 )


      isym =  3     120 deg rotation - cryst. axis [0,0,1]       

 cryst.   s( 3) = (     0          1          0      )
                  (    -1         -1          0      )
                  (     0          0          1      )

 cart.    s( 3) = ( -0.5000000 -0.8660254  0.0000000 )
                  (  0.8660254 -0.5000000  0.0000000 )
                  (  0.0000000  0.0000000  1.0000000 )


      isym =  4     120 deg rotation - cryst. axis [0,0,-1]      

 cryst.   s( 4) = (    -1         -1          0      )
                  (     1          0          0      )
                  (     0          0          1      )

 cart.    s( 4) = ( -0.5000000  0.8660254  0.0000000 )
                  ( -0.8660254 -0.5000000  0.0000000 )
                  (  0.0000000  0.0000000  1.0000000 )


      isym =  5     180 deg rotation - cryst. axis [1,-1,0]      

 cryst.   s( 5) = (     0         -1          0      )
                  (    -1          0          0      )
                  (     0          0         -1      )

 cart.    s( 5) = (  0.5000000 -0.8660254  0.0000000 )
                  ( -0.8660254 -0.5000000  0.0000000 )
                  (  0.0000000  0.0000000 -1.0000000 )


      isym =  6     180 deg rotation - cryst. axis [2,1,0]       

 cryst.   s( 6) = (     1          1          0      )
                  (     0         -1          0      )
                  (     0          0         -1      )

 cart.    s( 6) = (  0.5000000  0.8660254  0.0000000 )
                  (  0.8660254 -0.5000000  0.0000000 )
                  (  0.0000000  0.0000000 -1.0000000 )


      isym =  7     inversion                                    

 cryst.   s( 7) = (    -1          0          0      )
                  (     0         -1          0      )
                  (     0          0         -1      )

 cart.    s( 7) = ( -1.0000000  0.0000000  0.0000000 )
                  (  0.0000000 -1.0000000  0.0000000 )
                  (  0.0000000  0.0000000 -1.0000000 )


      isym =  8     inv. 180 deg rotation - cart. axis [0,1,0]   

 cryst.   s( 8) = (     1          0          0      )
                  (    -1         -1          0      )
                  (     0          0          1      )

 cart.    s( 8) = (  1.0000000  0.0000000  0.0000000 )
                  (  0.0000000 -1.0000000  0.0000000 )
                  (  0.0000000  0.0000000  1.0000000 )


      isym =  9     inv. 120 deg rotation - cryst. axis [0,0,1]  

 cryst.   s( 9) = (     0         -1          0      )
                  (     1          1          0      )
                  (     0          0         -1      )

 cart.    s( 9) = (  0.5000000  0.8660254  0.0000000 )
                  ( -0.8660254  0.5000000  0.0000000 )
                  (  0.0000000  0.0000000 -1.0000000 )


      isym = 10     inv. 120 deg rotation - cryst. axis [0,0,-1] 

 cryst.   s(10) = (     1          1          0      )
                  (    -1          0          0      )
                  (     0          0         -1      )

 cart.    s(10) = (  0.5000000 -0.8660254  0.0000000 )
                  (  0.8660254  0.5000000  0.0000000 )
                  (  0.0000000  0.0000000 -1.0000000 )


      isym = 11     inv. 180 deg rotation - cryst. axis [1,-1,0] 

 cryst.   s(11) = (     0          1          0      )
                  (     1          0          0      )
                  (     0          0          1      )

 cart.    s(11) = ( -0.5000000  0.8660254  0.0000000 )
                  (  0.8660254  0.5000000  0.0000000 )
                  (  0.0000000  0.0000000  1.0000000 )


      isym = 12     inv. 180 deg rotation - cryst. axis [2,1,0]  

 cryst.   s(12) = (    -1         -1          0      )
                  (     0          1          0      )
                  (     0          0          1      )

 cart.    s(12) = ( -0.5000000 -0.8660254  0.0000000 )
                  ( -0.8660254  0.5000000  0.0000000 )
                  (  0.0000000  0.0000000  1.0000000 )


     point group D_3d (-3m) 
     there are  6 classes
     the character table:

       E     2C3   3C2'  i     2S6   3s_d 
A_1g   1.00  1.00  1.00  1.00  1.00  1.00
A_2g   1.00  1.00 -1.00  1.00  1.00 -1.00
E_g    2.00 -1.00  0.00  2.00 -1.00  0.00
A_1u   1.00  1.00  1.00 -1.00 -1.00 -1.00
A_2u   1.00  1.00 -1.00 -1.00 -1.00  1.00
E_u    2.00 -1.00  0.00 -2.00  1.00  0.00

     the symmetry operations in each class and the name of the first element:

     E        1
          identity                                               
     2C3      3    4
          120 deg rotation - cryst. axis [0,0,1]                 
     3C2'     2    6    5
          180 deg rotation - cart. axis [0,1,0]                  
     i        7
          inversion                                              
     2S6      9   10
          inv. 120 deg rotation - cryst. axis [0,0,1]            
     3s_d     8   12   11
          inv. 180 deg rotation - cart. axis [0,1,0]             

   Cartesian axes

     site n.     atom                  positions (alat units)
         1           Cr  tau(   1) = (   0.5000000   0.2886751   0.0000000  )
         2           Cr  tau(   2) = (  -0.0000000   0.5773503   0.0000000  )
         3           I   tau(   3) = (   0.3254097   0.5636261  -0.2277343  )
         4           I   tau(   4) = (  -0.1745903   0.3023993  -0.2277343  )
         5           I   tau(   5) = (   0.3491807   0.0000000  -0.2277343  )
         6           I   tau(   6) = (   0.1745903   0.3023993   0.2277343  )
         7           I   tau(   7) = (   0.6508193   0.0000000   0.2277343  )
         8           I   tau(   8) = (  -0.3254097   0.5636261   0.2277343  )

   Crystallographic axes

     site n.     atom                  positions (cryst. coord.)
         1           Cr  tau(   1) = (  0.6666667  0.3333333  0.0000000  )
         2           Cr  tau(   2) = (  0.3333333  0.6666667  0.0000000  )
         3           I   tau(   3) = (  0.6508193  0.6508193 -0.0722328  )
         4           I   tau(   4) = (  0.0000000  0.3491807 -0.0722328  )
         5           I   tau(   5) = (  0.3491807  0.0000000 -0.0722328  )
         6           I   tau(   6) = (  0.3491807  0.3491807  0.0722328  )
         7           I   tau(   7) = (  0.6508193  0.0000000  0.0722328  )
         8           I   tau(   8) = (  0.0000000  0.6508193  0.0722328  )

     number of k points=     3
                       cart. coord. in units 2pi/alat
        k(    1) = (   0.0000000   0.0000000   0.0000000), wk =   0.1111111
        k(    2) = (   0.0000000   0.3849002   0.0000000), wk =   0.6666667
        k(    3) = (   0.3333333   0.5773503   0.0000000), wk =   0.2222222

                       cryst. coord.
        k(    1) = (   0.0000000   0.0000000   0.0000000), wk =   0.1111111
        k(    2) = (   0.0000000   0.3333333   0.0000000), wk =   0.6666667
        k(    3) = (   0.3333333   0.3333333   0.0000000), wk =   0.2222222

     Dense  grid:   350177 G-vectors     FFT dimensions: (  64,  64, 200)

     Dynamical RAM for                 wfc:      25.37 MB

     Dynamical RAM for     wfc (w. buffer):     177.62 MB

     Dynamical RAM for           str. fact:      10.69 MB

     Dynamical RAM for           local pot:       0.00 MB

     Dynamical RAM for          nlocal pot:      96.16 MB

     Dynamical RAM for                qrad:       2.49 MB

     Dynamical RAM for          rho,v,vnew:      69.56 MB

     Dynamical RAM for               rhoin:      23.19 MB

     Dynamical RAM for            rho*nmix:     170.98 MB

     Dynamical RAM for           G-vectors:      22.71 MB

     Dynamical RAM for          h,s,v(r/c):       0.26 MB

     Dynamical RAM for          <psi|beta>:       0.08 MB

     Dynamical RAM for                 psi:      50.75 MB

     Dynamical RAM for                hpsi:      50.75 MB

     Dynamical RAM for      wfcinit/wfcrot:      58.81 MB

     Estimated static dynamical RAM per process >     626.92 MB

     Estimated max dynamical RAM per process >     728.77 MB

     Check: negative core charge=   -0.000002
     Generating pointlists ...
     new r_m :   0.1639 (alat units)  2.0799 (a.u.) for type    1
     new r_m :   0.1639 (alat units)  2.0799 (a.u.) for type    2

     Initial potential from superposition of free atoms

     starting charge   69.99738, renormalised to   70.00000
     Starting wfcs are   44 randomized atomic wfcs

     total cpu time spent up to now is       15.9 secs

     Self-consistent Calculation

     iteration #  1     ecut=    60.00 Ry     beta= 0.70
     Davidson diagonalization with overlap
     ethr =  1.00E-02,  avg # of iterations =  4.0

     total cpu time spent up to now is       56.4 secs

     total energy              =    -511.11802591 Ry
     estimated scf accuracy    <       5.02704136 Ry

     total magnetization       =     6.00 Bohr mag/cell
     absolute magnetization    =    10.14 Bohr mag/cell

     iteration #  2     ecut=    60.00 Ry     beta= 0.70
     Davidson diagonalization with overlap
     ethr =  7.18E-03,  avg # of iterations =  4.2

     total cpu time spent up to now is       96.0 secs

     total energy              =    -510.99912700 Ry
     estimated scf accuracy    <       1.83971536 Ry

     total magnetization       =     6.00 Bohr mag/cell
     absolute magnetization    =    10.39 Bohr mag/cell

     iteration #  3     ecut=    60.00 Ry     beta= 0.70
     Davidson diagonalization with overlap
     ethr =  2.63E-03,  avg # of iterations =  4.7

     total cpu time spent up to now is      143.6 secs

     total energy              =    -511.37264655 Ry
     estimated scf accuracy    <       4.69791331 Ry

     total magnetization       =     6.00 Bohr mag/cell
     absolute magnetization    =     6.63 Bohr mag/cell

     iteration #  4     ecut=    60.00 Ry     beta= 0.70
     Davidson diagonalization with overlap
     ethr =  2.63E-03,  avg # of iterations =  5.7

     total cpu time spent up to now is      189.2 secs

     total energy              =    -511.92158335 Ry
     estimated scf accuracy    <       0.02434504 Ry

     total magnetization       =     6.00 Bohr mag/cell
     absolute magnetization    =     8.22 Bohr mag/cell

     iteration #  5     ecut=    60.00 Ry     beta= 0.70
     Davidson diagonalization with overlap
     ethr =  3.48E-05,  avg # of iterations =  9.8

     total cpu time spent up to now is      262.4 secs

     total energy              =    -511.99359300 Ry
     estimated scf accuracy    <       0.11136224 Ry

     total magnetization       =     6.00 Bohr mag/cell
     absolute magnetization    =     7.39 Bohr mag/cell

     iteration #  6     ecut=    60.00 Ry     beta= 0.70
     Davidson diagonalization with overlap
     ethr =  3.48E-05,  avg # of iterations =  1.5

     total cpu time spent up to now is      294.1 secs

     total energy              =    -511.97537666 Ry
     estimated scf accuracy    <       0.06597836 Ry

     total magnetization       =     6.00 Bohr mag/cell
     absolute magnetization    =     7.36 Bohr mag/cell

     iteration #  7     ecut=    60.00 Ry     beta= 0.70
     Davidson diagonalization with overlap
     ethr =  3.48E-05,  avg # of iterations =  6.3

     total cpu time spent up to now is      342.3 secs

     total energy              =    -511.99709708 Ry
     estimated scf accuracy    <       0.03348768 Ry

     total magnetization       =     6.00 Bohr mag/cell
     absolute magnetization    =     6.97 Bohr mag/cell

     iteration #  8     ecut=    60.00 Ry     beta= 0.70
     Davidson diagonalization with overlap
     ethr =  3.48E-05,  avg # of iterations =  1.0

     total cpu time spent up to now is      372.1 secs

     total energy              =    -511.99026383 Ry
     estimated scf accuracy    <       0.03051132 Ry

     total magnetization       =     6.00 Bohr mag/cell
     absolute magnetization    =     6.95 Bohr mag/cell

     iteration #  9     ecut=    60.00 Ry     beta= 0.70
     Davidson diagonalization with overlap
     ethr =  3.48E-05,  avg # of iterations =  3.0

     total cpu time spent up to now is      407.6 secs

     total energy              =    -511.99325755 Ry
     estimated scf accuracy    <       0.00112568 Ry

     total magnetization       =     6.00 Bohr mag/cell
     absolute magnetization    =     6.96 Bohr mag/cell

     iteration # 10     ecut=    60.00 Ry     beta= 0.70
     Davidson diagonalization with overlap
     ethr =  1.61E-06,  avg # of iterations =  8.0

     total cpu time spent up to now is      463.2 secs

     total energy              =    -511.99417461 Ry
     estimated scf accuracy    <       0.00190555 Ry

     total magnetization       =     6.00 Bohr mag/cell
     absolute magnetization    =     6.94 Bohr mag/cell

     iteration # 11     ecut=    60.00 Ry     beta= 0.70
     Davidson diagonalization with overlap
     ethr =  1.61E-06,  avg # of iterations =  1.7

     total cpu time spent up to now is      494.2 secs

     total energy              =    -511.99399030 Ry
     estimated scf accuracy    <       0.00123356 Ry

     total magnetization       =     6.00 Bohr mag/cell
     absolute magnetization    =     6.93 Bohr mag/cell

     iteration # 12     ecut=    60.00 Ry     beta= 0.70
     Davidson diagonalization with overlap
     ethr =  1.61E-06,  avg # of iterations =  3.2

     total cpu time spent up to now is      526.8 secs

     total energy              =    -511.99405668 Ry
     estimated scf accuracy    <       0.00018279 Ry

     total magnetization       =     6.00 Bohr mag/cell
     absolute magnetization    =     6.91 Bohr mag/cell

     iteration # 13     ecut=    60.00 Ry     beta= 0.70
     Davidson diagonalization with overlap
     ethr =  2.61E-07,  avg # of iterations =  5.7

     total cpu time spent up to now is      564.1 secs

     total energy              =    -511.99408657 Ry
     estimated scf accuracy    <       0.00001546 Ry

     total magnetization       =     6.00 Bohr mag/cell
     absolute magnetization    =     6.90 Bohr mag/cell

     iteration # 14     ecut=    60.00 Ry     beta= 0.70
     Davidson diagonalization with overlap
     ethr =  2.21E-08,  avg # of iterations =  5.7

     total cpu time spent up to now is      605.9 secs

     total energy              =    -511.99409216 Ry
     estimated scf accuracy    <       0.00000107 Ry

     total magnetization       =     6.00 Bohr mag/cell
     absolute magnetization    =     6.90 Bohr mag/cell

     iteration # 15     ecut=    60.00 Ry     beta= 0.70
     Davidson diagonalization with overlap
     ethr =  1.53E-09,  avg # of iterations =  6.8

     total cpu time spent up to now is      664.3 secs

     total energy              =    -511.99409407 Ry
     estimated scf accuracy    <       0.00000890 Ry

     total magnetization       =     6.00 Bohr mag/cell
     absolute magnetization    =     6.90 Bohr mag/cell

     iteration # 16     ecut=    60.00 Ry     beta= 0.70
     Davidson diagonalization with overlap
     ethr =  1.53E-09,  avg # of iterations =  2.0

     total cpu time spent up to now is      696.2 secs

     total energy              =    -511.99409307 Ry
     estimated scf accuracy    <       0.00000857 Ry

     total magnetization       =     6.00 Bohr mag/cell
     absolute magnetization    =     6.90 Bohr mag/cell

     iteration # 17     ecut=    60.00 Ry     beta= 0.70
     Davidson diagonalization with overlap
     ethr =  1.53E-09,  avg # of iterations =  3.7

     total cpu time spent up to now is      734.4 secs

     total energy              =    -511.99409309 Ry
     estimated scf accuracy    <       0.00000231 Ry

     total magnetization       =     6.00 Bohr mag/cell
     absolute magnetization    =     6.90 Bohr mag/cell

     iteration # 18     ecut=    60.00 Ry     beta= 0.70
     Davidson diagonalization with overlap
     ethr =  1.53E-09,  avg # of iterations =  3.0

     total cpu time spent up to now is      770.3 secs

     total energy              =    -511.99409321 Ry
     estimated scf accuracy    <       0.00000033 Ry

     total magnetization       =     6.00 Bohr mag/cell
     absolute magnetization    =     6.90 Bohr mag/cell

     iteration # 19     ecut=    60.00 Ry     beta= 0.70
     Davidson diagonalization with overlap
     ethr =  4.65E-10,  avg # of iterations =  5.3

     total cpu time spent up to now is      807.0 secs

     total energy              =    -511.99409325 Ry
     estimated scf accuracy    <       0.00000001 Ry

     total magnetization       =     6.00 Bohr mag/cell
     absolute magnetization    =     6.90 Bohr mag/cell

     iteration # 20     ecut=    60.00 Ry     beta= 0.70
     Davidson diagonalization with overlap
     ethr =  1.98E-11,  avg # of iterations =  6.8

     total cpu time spent up to now is      857.4 secs

     total energy              =    -511.99409327 Ry
     estimated scf accuracy    <       0.00000001 Ry

     total magnetization       =     6.00 Bohr mag/cell
     absolute magnetization    =     6.90 Bohr mag/cell

     iteration # 21     ecut=    60.00 Ry     beta= 0.70
     Davidson diagonalization with overlap
     ethr =  1.98E-11,  avg # of iterations =  2.3

     Magnetic moment per site:
     atom:    1    charge:   12.4058    magn:    2.8355    constr:    0.0000
     atom:    2    charge:   12.4058    magn:    2.8355    constr:    0.0000
     atom:    3    charge:    3.9630    magn:   -0.0357    constr:    0.0000
     atom:    4    charge:    3.9630    magn:   -0.0357    constr:    0.0000
     atom:    5    charge:    3.9630    magn:   -0.0357    constr:    0.0000
     atom:    6    charge:    3.9630    magn:   -0.0357    constr:    0.0000
     atom:    7    charge:    3.9630    magn:   -0.0357    constr:    0.0000
     atom:    8    charge:    3.9630    magn:   -0.0357    constr:    0.0000

     total cpu time spent up to now is      890.3 secs

     End of self-consistent calculation

 ------ SPIN UP ------------


          k = 0.0000 0.0000 0.0000 ( 43743 PWs)   bands (ev):

   -74.4523 -74.4507 -46.1822 -46.1812 -46.1714 -46.1714 -46.1665 -46.1665
   -15.6310 -14.7575 -14.3972 -14.3972 -14.3013 -14.3013  -7.2038  -6.6965
    -6.1518  -6.1518  -6.1405  -6.1405  -5.7150  -5.3391  -5.2453  -5.2453
    -4.7970  -4.7970  -4.3914  -3.6146  -3.5728  -3.5728  -3.2848  -2.9383
    -2.9383  -2.9200  -2.8397  -2.8397  -2.3749  -2.3749

     occupation numbers 
     1.0000   1.0000   1.0000   1.0000   1.0000   1.0000   1.0000   1.0000
     1.0000   1.0000   1.0000   1.0000   1.0000   1.0000   1.0000   1.0000
     1.0000   1.0000   1.0000   1.0000   1.0000   1.0000   1.0000   1.0000
     1.0000   1.0000   1.0000   1.0000   1.0000   1.0000   1.0000   1.0000
     1.0000   1.0000   1.0000   1.0000   1.0000   1.0000

          k = 0.0000 0.3849 0.0000 ( 43735 PWs)   bands (ev):

   -74.4515 -74.4515 -46.1821 -46.1813 -46.1714 -46.1702 -46.1675 -46.1665
   -15.3780 -14.7309 -14.6174 -14.4939 -14.3605 -14.3376  -7.2025  -6.5834
    -6.3182  -6.1912  -6.0471  -5.6307  -5.6169  -5.2987  -5.2394  -4.9294
    -4.5204  -4.4200  -4.3709  -4.1516  -3.8979  -3.7807  -3.2157  -3.2132
    -3.0894  -2.8228  -2.8057  -2.7805  -2.5520  -2.3233

     occupation numbers 
     1.0000   1.0000   1.0000   1.0000   1.0000   1.0000   1.0000   1.0000
     1.0000   1.0000   1.0000   1.0000   1.0000   1.0000   1.0000   1.0000
     1.0000   1.0000   1.0000   1.0000   1.0000   1.0000   1.0000   1.0000
     1.0000   1.0000   1.0000   1.0000   1.0000   1.0000   1.0000   1.0000
     1.0000   1.0000   1.0000   1.0000   1.0000   1.0000

          k = 0.3333 0.5774 0.0000 ( 43680 PWs)   bands (ev):

   -74.4512 -74.4512 -46.1817 -46.1817 -46.1716 -46.1687 -46.1687 -46.1659
   -15.0218 -15.0218 -14.6661 -14.4509 -14.4509 -14.3773  -6.7180  -6.7180
    -6.2938  -6.1201  -6.1201  -5.6599  -5.6599  -5.6360  -5.2744  -4.9508
    -4.2702  -4.2702  -4.2364  -4.0225  -4.0225  -3.6585  -3.5296  -3.5296
    -3.0195  -2.8275  -2.6384  -2.6384  -2.4748  -2.4748

     occupation numbers 
     1.0000   1.0000   1.0000   1.0000   1.0000   1.0000   1.0000   1.0000
     1.0000   1.0000   1.0000   1.0000   1.0000   1.0000   1.0000   1.0000
     1.0000   1.0000   1.0000   1.0000   1.0000   1.0000   1.0000   1.0000
     1.0000   1.0000   1.0000   1.0000   1.0000   1.0000   1.0000   1.0000
     1.0000   1.0000   1.0000   1.0000   1.0000   1.0000

 ------ SPIN DOWN ----------


          k = 0.0000 0.0000 0.0000 ( 43743 PWs)   bands (ev):

   -71.6259 -71.6244 -43.3702 -43.3687 -43.3338 -43.3338 -43.3275 -43.3275
   -15.5923 -14.7589 -14.3931 -14.3931 -14.2973 -14.2973  -6.9356  -6.4664
    -5.9722  -5.9722  -5.8634  -5.8634  -5.6172  -5.1461  -4.6120  -4.6120
    -4.3352  -4.3114  -4.3114  -3.6060  -3.1859  -3.1859  -2.5190  -2.5190
    -0.7113  -0.6823  -0.6823  -0.6109  -0.3047  -0.3047

     occupation numbers 
     1.0000   1.0000   1.0000   1.0000   1.0000   1.0000   1.0000   1.0000
     1.0000   1.0000   1.0000   1.0000   1.0000   1.0000   1.0000   1.0000
     1.0000   1.0000   1.0000   1.0000   1.0000   1.0000   1.0000   1.0000
     1.0000   1.0000   1.0000   1.0000   1.0000   1.0000   1.0000   1.0000
     0.0000   0.0000   0.0000   0.0000   0.0000   0.0000

          k = 0.0000 0.3849 0.0000 ( 43735 PWs)   bands (ev):

   -71.6251 -71.6251 -43.3700 -43.3689 -43.3338 -43.3324 -43.3288 -43.3275
   -15.3440 -14.7170 -14.6177 -14.4911 -14.3571 -14.3311  -6.9680  -6.3505
    -6.2102  -5.9683  -5.7872  -5.3553  -5.1702  -4.7754  -4.7528  -4.4440
    -4.2611  -4.1153  -4.0549  -3.9141  -3.6413  -3.3518  -3.1609  -2.8502
    -0.8190  -0.7529  -0.4976  -0.3845  -0.3656  -0.2668

     occupation numbers 
     1.0000   1.0000   1.0000   1.0000   1.0000   1.0000   1.0000   1.0000
     1.0000   1.0000   1.0000   1.0000   1.0000   1.0000   1.0000   1.0000
     1.0000   1.0000   1.0000   1.0000   1.0000   1.0000   1.0000   1.0000
     1.0000   1.0000   1.0000   1.0000   1.0000   1.0000   1.0000   1.0000
     0.0000   0.0000   0.0000   0.0000   0.0000   0.0000

          k = 0.3333 0.5774 0.0000 ( 43680 PWs)   bands (ev):

   -71.6249 -71.6249 -43.3695 -43.3695 -43.3341 -43.3305 -43.3305 -43.3269
   -14.9955 -14.9955 -14.6633 -14.4497 -14.4496 -14.3715  -6.4900  -6.4900
    -6.0137  -5.9368  -5.9368  -5.4453  -5.2692  -5.2692  -4.6836  -4.5966
    -3.9782  -3.9588  -3.9588  -3.5198  -3.5198  -3.4850  -3.1166  -3.1166
    -0.8046  -0.8046  -0.6902  -0.4997  -0.2455  -0.2455

     occupation numbers 
     1.0000   1.0000   1.0000   1.0000   1.0000   1.0000   1.0000   1.0000
     1.0000   1.0000   1.0000   1.0000   1.0000   1.0000   1.0000   1.0000
     1.0000   1.0000   1.0000   1.0000   1.0000   1.0000   1.0000   1.0000
     1.0000   1.0000   1.0000   1.0000   1.0000   1.0000   1.0000   1.0000
     0.0000   0.0000   0.0000   0.0000   0.0000   0.0000

     highest occupied, lowest unoccupied level (ev):    -2.3233   -0.8190

!    total energy              =    -511.99409326 Ry
     estimated scf accuracy    <          2.1E-09 Ry

     The total energy is the sum of the following terms:
     one-electron contribution =   -2094.09683755 Ry
     hartree contribution      =    1049.09280818 Ry
     xc contribution           =    -100.06030014 Ry
     ewald contribution        =     633.07023625 Ry

     total magnetization       =     6.00 Bohr mag/cell
     absolute magnetization    =     6.90 Bohr mag/cell

     convergence has been achieved in  21 iterations

     Writing output data file ./CrI3_kx3_e60.save/

     init_run     :     15.52s CPU     15.69s WALL (       1 calls)
     electrons    :    872.95s CPU    874.43s WALL (       1 calls)

     Called by init_run:
     wfcinit      :     14.17s CPU     14.28s WALL (       1 calls)
     wfcinit:atom :      0.09s CPU      0.13s WALL (       6 calls)
     wfcinit:wfcr :     13.48s CPU     13.51s WALL (       6 calls)
     potinit      :      0.57s CPU      0.59s WALL (       1 calls)
     hinit0       :      0.66s CPU      0.68s WALL (       1 calls)

     Called by electrons:
     c_bands      :    791.94s CPU    793.21s WALL (      21 calls)
     sum_band     :     73.47s CPU     73.56s WALL (      21 calls)
     v_of_rho     :      3.16s CPU      3.19s WALL (      22 calls)
     v_h          :      0.61s CPU      0.61s WALL (      22 calls)
     v_xc         :      2.56s CPU      2.58s WALL (      22 calls)
     mix_rho      :      4.09s CPU      4.19s WALL (      21 calls)

     Called by c_bands:
     init_us_2    :      5.81s CPU      5.83s WALL (     258 calls)
     cegterg      :    770.91s CPU    772.15s WALL (     126 calls)

     Called by sum_band:
     sum_band:wei :      0.00s CPU      0.00s WALL (      21 calls)
     sum_band:loo :     71.07s CPU     71.15s WALL (      21 calls)
     sum_band:buf :      0.62s CPU      0.62s WALL (     126 calls)
     sum_band:ini :      2.85s CPU      2.85s WALL (     126 calls)

     Called by *egterg:
     cdiaghg      :      0.96s CPU      0.96s WALL (     692 calls)
     cegterg:over :     70.17s CPU     70.27s WALL (     566 calls)
     cegterg:upda :     37.89s CPU     37.98s WALL (     566 calls)
     cegterg:last :     63.33s CPU     63.40s WALL (     287 calls)
     h_psi        :    584.89s CPU    585.81s WALL (     698 calls)
     g_psi        :      1.15s CPU      1.15s WALL (     566 calls)

     Called by h_psi:
     h_psi:calbec :    120.25s CPU    120.39s WALL (     698 calls)
     vloc_psi     :    364.49s CPU    365.11s WALL (     698 calls)
     add_vuspsi   :     98.49s CPU     98.57s WALL (     698 calls)

     General routines
     calbec       :    120.25s CPU    120.38s WALL (     698 calls)
     fft          :      2.22s CPU      2.22s WALL (     108 calls)
     ffts         :      0.90s CPU      0.90s WALL (      42 calls)
     fftw         :    384.51s CPU    385.18s WALL (   31826 calls)

     Parallel routines

     PWSCF        :  14m48.71s CPU  14m50.45s WALL


   This run was terminated on:  16:24:42  11Dec2020            

=------------------------------------------------------------------------------=
   JOB DONE.
=------------------------------------------------------------------------------=
