
     Program PWSCF v.5.0.2 (svn rev. 10042M) starts on 22Mar2013 at 18:55:42 

     This program is part of the open-source Quantum ESPRESSO suite
     for quantum simulation of materials; please cite
         "P. Giannozzi et al., J. Phys.:Condens. Matter 21 395502 (2009);
          URL http://www.quantum-espresso.org", 
     in publications or presentations arising from this work. More details at
     http://www.quantum-espresso.org/quote.php

     Parallel version (MPI), running on     1 processors

     Current dimensions of program PWSCF are:
     Max number of different atomic species (ntypx) = 10
     Max number of k-points (npk) =  40000
     Max angular momentum in pseudopotentials (lmaxx) =  3
     Waiting for input...
     Reading input from standard input
     Message from routine read_cards :
     DEPRECATED: no units specified in ATOMIC_POSITIONS card
     Message from routine read_cards :
     ATOMIC_POSITIONS: units set to alat

     Subspace diagonalization in iterative solution of the eigenvalue problem:
     a serial algorithm will be used


     G-vector sticks info
     --------------------
     sticks:   dense  smooth     PW     G-vecs:    dense   smooth      PW
     Sum         559     559    187                 8441     8441    1639

     Generating pointlists ...
     new r_m :   0.2917 (alat units)  1.9397 (a.u.) for type    1


     bravais-lattice index     =            2
     lattice parameter (alat)  =       6.6500  a.u.
     unit-cell volume          =      73.5199 (a.u.)^3
     number of atoms/cell      =            1
     number of atomic types    =            1
     number of electrons       =        10.00
     number of Kohn-Sham states=           20
     kinetic-energy cutoff     =      90.0000  Ry
     charge density cutoff     =     360.0000  Ry
     convergence threshold     =      1.0E-08
     mixing beta               =       0.7000
     number of iterations used =            8  plain     mixing
     Exchange-correlation      = LDA ( 1 1 0 0 0)
     EXX-fraction              =        0.00
     Noncollinear calculation with spin-orbit


     celldm(1)=   6.650000  celldm(2)=   0.000000  celldm(3)=   0.000000
     celldm(4)=   0.000000  celldm(5)=   0.000000  celldm(6)=   0.000000

     crystal axes: (cart. coord. in units of alat)
               a(1) = (  -0.500000   0.000000   0.500000 )  
               a(2) = (   0.000000   0.500000   0.500000 )  
               a(3) = (  -0.500000   0.500000   0.000000 )  

     reciprocal axes: (cart. coord. in units 2 pi/alat)
               b(1) = ( -1.000000 -1.000000  1.000000 )  
               b(2) = (  1.000000  1.000000  1.000000 )  
               b(3) = ( -1.000000  1.000000 -1.000000 )  


     PseudoPot. # 1 for Ni read from file:
     ./Nirel_10.RRKJ3.UPF
     MD5 check sum: e42ce178d24e0a9ee3de33e46cdcd0bb
     Pseudo is Norm-conserving + core correction, Zval = 10.0
     Generated using "atomic" code by A. Dal Corso  (Quantum ESPRESSO distribution)
     Using radial grid of 1195 points,  6 beta functions with: 
                l(1) =   2
                l(2) =   2
                l(3) =   2
                l(4) =   2
                l(5) =   1
                l(6) =   1

     atomic species   valence    mass     pseudopotential
        Ni            10.00    58.69000     Ni( 1.00)

     16 Sym. Ops., with inversion, found



   Cartesian axes

     site n.     atom                  positions (alat units)
         1           Ni  tau(   1) = (   0.0000000   0.0000000   0.0000000  )

     number of k points=   144  Methfessel-Paxton smearing, width (Ry)=  0.0200

     Number of k-points >= 100: set verbosity='high' to print them.

     Dense  grid:     8441 G-vectors     FFT dimensions: (  30,  30,  30)

     Largest allocated arrays     est. size (Mb)     dimensions
        Kohn-Sham Wavefunctions         0.65 Mb     (    2142,   20)
        NL pseudopotentials             0.42 Mb     (    1071,   26)
        Each V/rho on FFT grid          0.41 Mb     (   27000)
        Each G-vector array             0.06 Mb     (    8441)
        G-vector shells                 0.00 Mb     (     137)
     Largest temporary arrays     est. size (Mb)     dimensions
        Auxiliary wavefunctions         2.61 Mb     (    2142,   80)
        Each subspace H/S matrix        0.10 Mb     (      80,   80)
        Each <psi_i|beta_j> matrix      0.02 Mb     (      26,   2,   20)
        Arrays for rho mixing           3.30 Mb     (   27000,    8)

     Initial potential from superposition of free atoms

     starting charge    9.99980, renormalised to   10.00000

 ==============================================================================
     atom number    1 relative position :    0.0000   0.0000   0.0000
     charge :     8.711618
     magnetization :          0.000000    0.000000    6.098132
     magnetization/charge:    0.000000    0.000000    0.700000
     polar coord.: r, theta, phi [deg] :     6.098132    0.000000  360.000000

 ==============================================================================
     Starting wfc are   18 randomized atomic wfcs

     total cpu time spent up to now is       31.9 secs

     per-process dynamical memory:    16.0 Mb

     Self-consistent Calculation

     iteration #  1     ecut=    90.00 Ry     beta=0.70
     Davidson diagonalization with overlap
     ethr =  1.00E-02,  avg # of iterations =  5.1

 ==============================================================================
     atom number    1 relative position :    0.0000   0.0000   0.0000
     charge :     8.579555
     magnetization :         -0.000000   -0.000000    3.118427
     magnetization/charge:   -0.000000   -0.000000    0.363472
     polar coord.: r, theta, phi [deg] :     3.118427    0.000000  360.000000

 ==============================================================================

     total cpu time spent up to now is      160.7 secs

     total energy              =     -78.04477692 Ry
     Harris-Foulkes estimate   =     -77.70044662 Ry
     estimated scf accuracy    <       0.44073572 Ry

     total magnetization       =    -0.00    -0.00     1.83 Bohr mag/cell
     absolute magnetization    =     1.85 Bohr mag/cell

     iteration #  2     ecut=    90.00 Ry     beta=0.70
     Davidson diagonalization with overlap
     ethr =  4.41E-03,  avg # of iterations =  1.5

 ==============================================================================
     atom number    1 relative position :    0.0000   0.0000   0.0000
     charge :     8.721705
     magnetization :         -0.000000   -0.000000    2.217111
     magnetization/charge:   -0.000000   -0.000000    0.254206
     polar coord.: r, theta, phi [deg] :     2.217111    0.000000  360.000000

 ==============================================================================

     total cpu time spent up to now is      243.7 secs

     total energy              =     -78.10496780 Ry
     Harris-Foulkes estimate   =     -78.15492788 Ry
     estimated scf accuracy    <       0.30046946 Ry

     total magnetization       =    -0.00     0.00     1.03 Bohr mag/cell
     absolute magnetization    =     1.19 Bohr mag/cell

     iteration #  3     ecut=    90.00 Ry     beta=0.70
     Davidson diagonalization with overlap
     ethr =  3.00E-03,  avg # of iterations =  1.2

 ==============================================================================
     atom number    1 relative position :    0.0000   0.0000   0.0000
     charge :     8.707455
     magnetization :          0.000000   -0.000000    0.857133
     magnetization/charge:    0.000000   -0.000000    0.098437
     polar coord.: r, theta, phi [deg] :     0.857133    0.000000  360.000000

 ==============================================================================

     total cpu time spent up to now is      325.5 secs

     total energy              =     -78.18162102 Ry
     Harris-Foulkes estimate   =     -78.17509287 Ry
     estimated scf accuracy    <       0.06508205 Ry

     total magnetization       =     0.00    -0.00     1.15 Bohr mag/cell
     absolute magnetization    =     1.32 Bohr mag/cell

     iteration #  4     ecut=    90.00 Ry     beta=0.70
     Davidson diagonalization with overlap
     ethr =  6.51E-04,  avg # of iterations =  1.3

 ==============================================================================
     atom number    1 relative position :    0.0000   0.0000   0.0000
     charge :     8.716800
     magnetization :          0.000000   -0.000000    0.762365
     magnetization/charge:    0.000000   -0.000000    0.087459
     polar coord.: r, theta, phi [deg] :     0.762365    0.000000  360.000000

 ==============================================================================

     total cpu time spent up to now is      407.4 secs

     total energy              =     -78.19805671 Ry
     Harris-Foulkes estimate   =     -78.19784738 Ry
     estimated scf accuracy    <       0.00085821 Ry

     total magnetization       =     0.00    -0.00     0.77 Bohr mag/cell
     absolute magnetization    =     0.96 Bohr mag/cell

     iteration #  5     ecut=    90.00 Ry     beta=0.70
     Davidson diagonalization with overlap
     ethr =  8.58E-06,  avg # of iterations =  4.0

 ==============================================================================
     atom number    1 relative position :    0.0000   0.0000   0.0000
     charge :     8.719251
     magnetization :         -0.000000   -0.000000    0.770060
     magnetization/charge:   -0.000000   -0.000000    0.088317
     polar coord.: r, theta, phi [deg] :     0.770060    0.000000  360.000000

 ==============================================================================

     total cpu time spent up to now is      536.7 secs

     total energy              =     -78.19874589 Ry
     Harris-Foulkes estimate   =     -78.19863555 Ry
     estimated scf accuracy    <       0.00009337 Ry

     total magnetization       =    -0.00    -0.00     0.73 Bohr mag/cell
     absolute magnetization    =     0.87 Bohr mag/cell

     iteration #  6     ecut=    90.00 Ry     beta=0.70
     Davidson diagonalization with overlap
     ethr =  9.34E-07,  avg # of iterations =  2.0

 ==============================================================================
     atom number    1 relative position :    0.0000   0.0000   0.0000
     charge :     8.718533
     magnetization :         -0.000000   -0.000000    0.771754
     magnetization/charge:   -0.000000   -0.000000    0.088519
     polar coord.: r, theta, phi [deg] :     0.771754    0.000000  360.000000

 ==============================================================================

     total cpu time spent up to now is      629.7 secs

     total energy              =     -78.19880045 Ry
     Harris-Foulkes estimate   =     -78.19879259 Ry
     estimated scf accuracy    <       0.00000777 Ry

     total magnetization       =    -0.00    -0.00     0.73 Bohr mag/cell
     absolute magnetization    =     0.85 Bohr mag/cell

     iteration #  7     ecut=    90.00 Ry     beta=0.70
     Davidson diagonalization with overlap
     ethr =  7.77E-08,  avg # of iterations =  3.1

 ==============================================================================
     atom number    1 relative position :    0.0000   0.0000   0.0000
     charge :     8.718559
     magnetization :         -0.000000   -0.000000    0.770461
     magnetization/charge:   -0.000000   -0.000000    0.088370
     polar coord.: r, theta, phi [deg] :     0.770461    0.000000  360.000000

 ==============================================================================

     total cpu time spent up to now is      738.0 secs

     total energy              =     -78.19880609 Ry
     Harris-Foulkes estimate   =     -78.19880593 Ry
     estimated scf accuracy    <       0.00000025 Ry

     total magnetization       =    -0.00    -0.00     0.72 Bohr mag/cell
     absolute magnetization    =     0.84 Bohr mag/cell

     iteration #  8     ecut=    90.00 Ry     beta=0.70
     Davidson diagonalization with overlap
     ethr =  2.54E-09,  avg # of iterations =  3.2

 ==============================================================================
     atom number    1 relative position :    0.0000   0.0000   0.0000
     charge :     8.718624
     magnetization :          0.000000   -0.000000    0.769063
     magnetization/charge:    0.000000   -0.000000    0.088209
     polar coord.: r, theta, phi [deg] :     0.769063    0.000000  360.000000

 ==============================================================================

     total cpu time spent up to now is      846.4 secs

     total energy              =     -78.19880630 Ry
     Harris-Foulkes estimate   =     -78.19880636 Ry
     estimated scf accuracy    <       0.00000013 Ry

     total magnetization       =     0.00    -0.00     0.72 Bohr mag/cell
     absolute magnetization    =     0.84 Bohr mag/cell

     iteration #  9     ecut=    90.00 Ry     beta=0.70
     Davidson diagonalization with overlap
     ethr =  1.34E-09,  avg # of iterations =  2.0

 ==============================================================================
     atom number    1 relative position :    0.0000   0.0000   0.0000
     charge :     8.718663
     magnetization :         -0.000000   -0.000000    0.768912
     magnetization/charge:   -0.000000   -0.000000    0.088191
     polar coord.: r, theta, phi [deg] :     0.768912    0.000000  360.000000

 ==============================================================================

     total cpu time spent up to now is      937.1 secs

     End of self-consistent calculation

     Number of k-points >= 100: set verbosity='high' to print the bands.

     the Fermi energy is    13.8867 ev

!    total energy              =     -78.19880636 Ry
     Harris-Foulkes estimate   =     -78.19880637 Ry
     estimated scf accuracy    <          5.0E-09 Ry

     The total energy is the sum of the following terms:

     one-electron contribution =      -5.03130368 Ry
     hartree contribution      =      15.82649213 Ry
     xc contribution           =     -20.04824037 Ry
     ewald contribution        =     -68.94529435 Ry
     smearing contrib. (-TS)   =      -0.00046009 Ry

     total magnetization       =    -0.00    -0.00     0.72 Bohr mag/cell
     absolute magnetization    =     0.84 Bohr mag/cell

     convergence has been achieved in   9 iterations

     Forces acting on atoms (Ry/au):

     atom    1 type  1   force =     0.00000000    0.00000000    0.00000000

     Total force =     0.000000     Total SCF correction =     0.000000


     entering subroutine stress ...

          total   stress  (Ry/bohr**3)                   (kbar)     P= -166.01
  -0.00112820  -0.00000000   0.00000000       -165.96     -0.00      0.00
  -0.00000000  -0.00112820   0.00000000         -0.00   -165.96      0.00
   0.00000000   0.00000000  -0.00112914          0.00      0.00   -166.10


     Writing output data file Ni_e90_k8_nb20.save

     init_run     :     32.25s CPU     31.59s WALL (       1 calls)
     electrons    :    951.39s CPU    905.24s WALL (       1 calls)
     forces       :      5.86s CPU      4.12s WALL (       1 calls)
     stress       :     10.79s CPU     10.51s WALL (       1 calls)

     Called by init_run:
     wfcinit      :     31.20s CPU     30.50s WALL (       1 calls)
     potinit      :      0.08s CPU      0.09s WALL (       1 calls)

     Called by electrons:
     c_bands      :    797.79s CPU    749.74s WALL (       9 calls)
     sum_band     :    152.82s CPU    154.68s WALL (       9 calls)
     v_of_rho     :      0.42s CPU      0.41s WALL (      10 calls)
     mix_rho      :      0.24s CPU      0.25s WALL (       9 calls)

     Called by c_bands:
     init_us_2    :      4.01s CPU      5.10s WALL (    3024 calls)
     cegterg      :    773.87s CPU    721.69s WALL (    1296 calls)

     Called by *egterg:
     h_psi        :    667.51s CPU    656.17s WALL (    4810 calls)
     g_psi        :      3.75s CPU      3.66s WALL (    3370 calls)
     cdiaghg      :     15.26s CPU     15.41s WALL (    4666 calls)

     Called by h_psi:
     add_vuspsi   :     23.09s CPU     14.75s WALL (    4810 calls)

     General routines
     calbec       :     29.11s CPU     20.74s WALL (    5098 calls)
     fft          :      0.33s CPU      0.33s WALL (     134 calls)
     fftw         :    585.56s CPU    589.52s WALL (  326808 calls)
     davcio       :      2.68s CPU      5.91s WALL (    4464 calls)

     Parallel routines
     fft_scatter  :     63.98s CPU     64.51s WALL (  326942 calls)

     PWSCF        : 16m42.43s CPU    15m54.81s WALL


   This run was terminated on:  19:11:37  22Mar2013            

=------------------------------------------------------------------------------=
   JOB DONE.
=------------------------------------------------------------------------------=
