
     Program PWSCF v.5.0.1 starts on 30Oct2013 at 17:31:37 

     This program is part of the open-source Quantum ESPRESSO suite
     for quantum simulation of materials; please cite
         "P. Giannozzi et al., J. Phys.:Condens. Matter 21 395502 (2009);
          URL http://www.quantum-espresso.org", 
     in publications or presentations arising from this work. More details at
     http://www.quantum-espresso.org/quote.php

     Parallel version (MPI), running on     6 processors
     R & G space division:  proc/pool =    6

     Current dimensions of program PWSCF are:
     Max number of different atomic species (ntypx) = 10
     Max number of k-points (npk) =  40000
     Max angular momentum in pseudopotentials (lmaxx) =  3
     Waiting for input...
     Reading input from standard input
Warning: card  &IONS ignored
Warning: card  / ignored
               file H.pz-vbc.UPF: wavefunction(s)  1S renormalized

     Subspace diagonalization in iterative solution of the eigenvalue problem:
     a serial algorithm will be used

 
     Parallelization info
     --------------------
     sticks:   dense  smooth     PW     G-vecs:    dense   smooth      PW
     Min        1671    1671    520                19596    19596    3367
     Max        1673    1673    522                19597    19597    3368
     Sum       10029   10029   3125               117581   117581   20205
 


     bravais-lattice index     =            8
     lattice parameter (alat)  =      30.0000  a.u.
     unit-cell volume          =    4200.2820 (a.u.)^3
     number of atoms/cell      =            4
     number of atomic types    =            2
     number of electrons       =        10.00
     number of Kohn-Sham states=            5
     kinetic-energy cutoff     =      35.0000  Ry
     charge density cutoff     =     140.0000  Ry
     convergence threshold     =      1.0E-08
     mixing beta               =       0.4000
     number of iterations used =            8  plain     mixing
     Exchange-correlation      =  SLA  PZ   NOGX NOGC ( 1 1 0 0 0)
     EXX-fraction              =        0.00

     celldm(1)=  30.000000  celldm(2)=   1.000000  celldm(3)=   0.155566
     celldm(4)=   0.000000  celldm(5)=   0.000000  celldm(6)=   0.000000

     crystal axes: (cart. coord. in units of alat)
               a(1) = (   1.000000   0.000000   0.000000 )  
               a(2) = (   0.000000   1.000000   0.000000 )  
               a(3) = (   0.000000   0.000000   0.155566 )  

     reciprocal axes: (cart. coord. in units 2 pi/alat)
               b(1) = (  1.000000  0.000000  0.000000 )  
               b(2) = (  0.000000  1.000000  0.000000 )  
               b(3) = (  0.000000  0.000000  6.428140 )  


     PseudoPot. # 1 for C  read from file:
     ./C.pz-vbc.UPF
     MD5 check sum: ab53dd623bfeb79c5a7b057bc96eae20
     Pseudo is Norm-conserving, Zval =  4.0
     Generated by new atomic code, or converted to UPF format
     Using radial grid of  269 points,  1 beta functions with: 
                l(1) =   0

     PseudoPot. # 2 for H  read from file:
     ./H.pz-vbc.UPF
     MD5 check sum: 90becb985b714f09656c73597998d266
     Pseudo is Norm-conserving, Zval =  1.0
     Generated by new atomic code, or converted to UPF format
     Using radial grid of  131 points,  0 beta functions with: 

     atomic species   valence    mass     pseudopotential
        C              4.00     1.00000     C ( 1.00)
        H              1.00     1.00000     H ( 1.00)

      2 Sym. Ops. (no inversion) found
          (note:  2 additional sym.ops. were found but ignored
           their fractional translations are incommensurate with FFT grid)

                                    s                        frac. trans.

      isym =  1     identity                                     

 cryst.   s( 1) = (     1          0          0      )
                  (     0          1          0      )
                  (     0          0          1      )

 cart.    s( 1) = (  1.0000000  0.0000000  0.0000000 )
                  (  0.0000000  1.0000000  0.0000000 )
                  (  0.0000000  0.0000000  1.0000000 )


      isym =  2     inv. 180 deg rotation - cart. axis [0,1,0]   

 cryst.   s( 2) = (     1          0          0      )
                  (     0         -1          0      )
                  (     0          0          1      )

 cart.    s( 2) = (  1.0000000  0.0000000  0.0000000 )
                  (  0.0000000 -1.0000000  0.0000000 )
                  (  0.0000000  0.0000000  1.0000000 )


     point group C_s (m)    
     there are  2 classes
     the character table:

       E     s    
A'     1.00  1.00
A''    1.00 -1.00

     the symmetry operations in each class:
     E        1
     s        2

   Cartesian axes

     site n.     atom                  positions (alat units)
         1           C   tau(   1) = (   0.0000000   0.0000000  -0.0368990  )
         2           C   tau(   2) = (   0.0408396   0.0000000   0.0368992  )
         3           H   tau(   3) = (  -0.0678406   0.0000000  -0.0371833  )
         4           H   tau(   4) = (   0.1086802   0.0000000   0.0371835  )

   Crystallographic axes

     site n.     atom                  positions (cryst. coord.)
         1           C   tau(   1) = (  0.0000000  0.0000000 -0.2371919  )
         2           C   tau(   2) = (  0.0408396  0.0000000  0.2371933  )
         3           H   tau(   3) = ( -0.0678406  0.0000000 -0.2390191  )
         4           H   tau(   4) = (  0.1086802  0.0000000  0.2390205  )

     number of k points=    16
                       cart. coord. in units 2pi/alat
        k(    1) = (   0.0000000   0.0000000   0.0000000), wk =   0.0666667
        k(    2) = (   0.0000000   0.0000000   0.2142713), wk =   0.1333333
        k(    3) = (   0.0000000   0.0000000   0.4285427), wk =   0.1333333
        k(    4) = (   0.0000000   0.0000000   0.6428140), wk =   0.1333333
        k(    5) = (   0.0000000   0.0000000   0.8570853), wk =   0.1333333
        k(    6) = (   0.0000000   0.0000000   1.0713566), wk =   0.1333333
        k(    7) = (   0.0000000   0.0000000   1.2856280), wk =   0.1333333
        k(    8) = (   0.0000000   0.0000000   1.4998993), wk =   0.1333333
        k(    9) = (   0.0000000   0.0000000   1.7141706), wk =   0.1333333
        k(   10) = (   0.0000000   0.0000000   1.9284419), wk =   0.1333333
        k(   11) = (   0.0000000   0.0000000   2.1427133), wk =   0.1333333
        k(   12) = (   0.0000000   0.0000000   2.3569846), wk =   0.1333333
        k(   13) = (   0.0000000   0.0000000   2.5712559), wk =   0.1333333
        k(   14) = (   0.0000000   0.0000000   2.7855273), wk =   0.1333333
        k(   15) = (   0.0000000   0.0000000   2.9997986), wk =   0.1333333
        k(   16) = (   0.0000000   0.0000000  -3.2140699), wk =   0.0666667

                       cryst. coord.
        k(    1) = (   0.0000000   0.0000000   0.0000000), wk =   0.0666667
        k(    2) = (   0.0000000   0.0000000   0.0333333), wk =   0.1333333
        k(    3) = (   0.0000000   0.0000000   0.0666667), wk =   0.1333333
        k(    4) = (   0.0000000   0.0000000   0.1000000), wk =   0.1333333
        k(    5) = (   0.0000000   0.0000000   0.1333333), wk =   0.1333333
        k(    6) = (   0.0000000   0.0000000   0.1666667), wk =   0.1333333
        k(    7) = (   0.0000000   0.0000000   0.2000000), wk =   0.1333333
        k(    8) = (   0.0000000   0.0000000   0.2333333), wk =   0.1333333
        k(    9) = (   0.0000000   0.0000000   0.2666667), wk =   0.1333333
        k(   10) = (   0.0000000   0.0000000   0.3000000), wk =   0.1333333
        k(   11) = (   0.0000000   0.0000000   0.3333333), wk =   0.1333333
        k(   12) = (   0.0000000   0.0000000   0.3666667), wk =   0.1333333
        k(   13) = (   0.0000000   0.0000000   0.4000000), wk =   0.1333333
        k(   14) = (   0.0000000   0.0000000   0.4333333), wk =   0.1333333
        k(   15) = (   0.0000000   0.0000000   0.4666667), wk =   0.1333333
        k(   16) = (   0.0000000   0.0000000  -0.5000000), wk =   0.0666667

     Dense  grid:   117581 G-vectors     FFT dimensions: ( 120, 120,  18)

     Largest allocated arrays     est. size (Mb)     dimensions
        Kohn-Sham Wavefunctions         0.19 Mb     (   2479,    5)
        NL pseudopotentials             0.08 Mb     (   2479,    2)
        Each V/rho on FFT grid          0.66 Mb     (  43200)
        Each G-vector array             0.15 Mb     (  19597)
        G-vector shells                 0.04 Mb     (   5048)
     Largest temporary arrays     est. size (Mb)     dimensions
        Auxiliary wavefunctions         0.76 Mb     (   2479,   20)
        Each subspace H/S matrix        0.01 Mb     (  20,  20)
        Each <psi_i|beta_j> matrix      0.00 Mb     (      2,    5)
        Arrays for rho mixing           5.27 Mb     (  43200,   8)

     Initial potential from superposition of free atoms
     Check: negative starting charge=   -0.009037

     starting charge    9.99989, renormalised to   10.00000

     negative rho (up, down):  0.904E-02 0.000E+00
     Starting wfc are   10 randomized atomic wfcs

     total cpu time spent up to now is        1.7 secs

     per-process dynamical memory:    12.9 Mb

     Self-consistent Calculation

     iteration #  1     ecut=    35.00 Ry     beta=0.40
     Davidson diagonalization with overlap
     ethr =  1.00E-02,  avg # of iterations =  2.0

     negative rho (up, down):  0.535E-02 0.000E+00

     total cpu time spent up to now is        2.9 secs

     total energy              =     -24.84966948 Ry
     Harris-Foulkes estimate   =     -25.07465644 Ry
     estimated scf accuracy    <       0.48001771 Ry

     iteration #  2     ecut=    35.00 Ry     beta=0.40
     Davidson diagonalization with overlap
     ethr =  4.80E-03,  avg # of iterations =  2.0

     negative rho (up, down):  0.235E-02 0.000E+00

     total cpu time spent up to now is        4.0 secs

     total energy              =     -24.87200729 Ry
     Harris-Foulkes estimate   =     -24.89732911 Ry
     estimated scf accuracy    <       0.05592019 Ry

     iteration #  3     ecut=    35.00 Ry     beta=0.40
     Davidson diagonalization with overlap
     ethr =  5.59E-04,  avg # of iterations =  2.0

     negative rho (up, down):  0.378E-03 0.000E+00

     total cpu time spent up to now is        5.0 secs

     total energy              =     -24.87528078 Ry
     Harris-Foulkes estimate   =     -24.87776020 Ry
     estimated scf accuracy    <       0.00591793 Ry

     iteration #  4     ecut=    35.00 Ry     beta=0.40
     Davidson diagonalization with overlap
     ethr =  5.92E-05,  avg # of iterations =  1.8

     negative rho (up, down):  0.948E-04 0.000E+00

     total cpu time spent up to now is        6.0 secs

     total energy              =     -24.87567074 Ry
     Harris-Foulkes estimate   =     -24.87569127 Ry
     estimated scf accuracy    <       0.00009012 Ry

     iteration #  5     ecut=    35.00 Ry     beta=0.40
     Davidson diagonalization with overlap
     ethr =  9.01E-07,  avg # of iterations =  3.4

     negative rho (up, down):  0.207E-05 0.000E+00

     total cpu time spent up to now is        7.3 secs

     total energy              =     -24.87573646 Ry
     Harris-Foulkes estimate   =     -24.87575275 Ry
     estimated scf accuracy    <       0.00002682 Ry

     iteration #  6     ecut=    35.00 Ry     beta=0.40
     Davidson diagonalization with overlap
     ethr =  2.68E-07,  avg # of iterations =  2.0

     negative rho (up, down):  0.127E-07 0.000E+00

     total cpu time spent up to now is        8.5 secs

     total energy              =     -24.87574039 Ry
     Harris-Foulkes estimate   =     -24.87574318 Ry
     estimated scf accuracy    <       0.00000474 Ry

     iteration #  7     ecut=    35.00 Ry     beta=0.40
     Davidson diagonalization with overlap
     ethr =  4.74E-08,  avg # of iterations =  2.0

     total cpu time spent up to now is        9.7 secs

     total energy              =     -24.87574153 Ry
     Harris-Foulkes estimate   =     -24.87574161 Ry
     estimated scf accuracy    <       0.00000022 Ry

     iteration #  8     ecut=    35.00 Ry     beta=0.40
     Davidson diagonalization with overlap
     ethr =  2.22E-09,  avg # of iterations =  3.5

     total cpu time spent up to now is       11.0 secs

     total energy              =     -24.87574159 Ry
     Harris-Foulkes estimate   =     -24.87574168 Ry
     estimated scf accuracy    <       0.00000015 Ry

     iteration #  9     ecut=    35.00 Ry     beta=0.40
     Davidson diagonalization with overlap
     ethr =  1.51E-09,  avg # of iterations =  2.0

     total cpu time spent up to now is       12.1 secs

     End of self-consistent calculation

          k = 0.0000 0.0000 0.0000 ( 14813 PWs)   bands (ev):

   -20.5980 -14.0000  -8.9195  -8.9055  -7.9546

     occupation numbers 
     0.0667   0.0667   0.0667   0.0667   0.0667

          k = 0.0000 0.0000 0.2143 ( 14773 PWs)   bands (ev):

   -20.5790 -13.9816  -8.9560  -8.8939  -7.9841

     occupation numbers 
     0.1333   0.1333   0.1333   0.1333   0.1333

          k = 0.0000 0.0000 0.4285 ( 14761 PWs)   bands (ev):

   -20.5239 -13.9295  -9.1206  -8.8202  -8.0580

     occupation numbers 
     0.1333   0.1333   0.1333   0.1333   0.1333

          k = 0.0000 0.0000 0.6428 ( 14761 PWs)   bands (ev):

   -20.4328 -13.8449  -9.4149  -8.6991  -8.1373

     occupation numbers 
     0.1333   0.1333   0.1333   0.1333   0.1333

          k = 0.0000 0.0000 0.8571 ( 14757 PWs)   bands (ev):

   -20.3058 -13.7285  -9.8301  -8.5289  -8.2070

     occupation numbers 
     0.1333   0.1333   0.1333   0.1333   0.1333

          k = 0.0000 0.0000 1.0714 ( 14741 PWs)   bands (ev):

   -20.1421 -13.5842 -10.3316  -8.3119  -8.2722

     occupation numbers 
     0.1333   0.1333   0.1333   0.1333   0.1333

          k = 0.0000 0.0000 1.2856 ( 14729 PWs)   bands (ev):

   -19.9424 -13.4181 -10.8871  -8.3440  -8.0464

     occupation numbers 
     0.1333   0.1333   0.1333   0.1333   0.1333

          k = 0.0000 0.0000 1.4999 ( 14701 PWs)   bands (ev):

   -19.7070 -13.2493 -11.4472  -8.4361  -7.7353

     occupation numbers 
     0.1333   0.1333   0.1333   0.1333   0.1333

          k = 0.0000 0.0000 1.7142 ( 14693 PWs)   bands (ev):

   -19.4371 -13.1415 -11.9364  -8.5569  -7.3789

     occupation numbers 
     0.1333   0.1333   0.1333   0.1333   0.1333

          k = 0.0000 0.0000 1.9284 ( 14661 PWs)   bands (ev):

   -19.1338 -13.2803 -12.1543  -8.7143  -6.9785

     occupation numbers 
     0.1333   0.1333   0.1333   0.1333   0.1333

          k = 0.0000 0.0000 2.1427 ( 14617 PWs)   bands (ev):

   -18.7961 -13.7249 -12.0389  -8.9115  -6.5337

     occupation numbers 
     0.1333   0.1333   0.1333   0.1333   0.1333

          k = 0.0000 0.0000 2.3570 ( 14593 PWs)   bands (ev):

   -18.4274 -14.2769 -11.7807  -9.1490  -6.0514

     occupation numbers 
     0.1333   0.1333   0.1333   0.1333   0.1333

          k = 0.0000 0.0000 2.5713 ( 14560 PWs)   bands (ev):

   -18.0312 -14.8416 -11.4689  -9.4243  -5.5360

     occupation numbers 
     0.1333   0.1333   0.1333   0.1333   0.1333

          k = 0.0000 0.0000 2.7855 ( 14580 PWs)   bands (ev):

   -17.6146 -15.3898 -11.1339  -9.7306  -4.9973

     occupation numbers 
     0.1333   0.1333   0.1333   0.1333   0.1333

          k = 0.0000 0.0000 2.9998 ( 14616 PWs)   bands (ev):

   -17.2069 -15.8786 -10.7929 -10.0553  -4.4730

     occupation numbers 
     0.1333   0.1333   0.1333   0.1333   0.1333

          k = 0.0000 0.0000-3.2141 ( 14592 PWs)   bands (ev):

   -16.9722 -16.1380 -10.5333 -10.3069  -4.1672

     occupation numbers 
     0.0667   0.0667   0.0667   0.0667   0.0667

!    total energy              =     -24.87574163 Ry
     Harris-Foulkes estimate   =     -24.87574163 Ry
     estimated scf accuracy    <          5.6E-10 Ry

     The total energy is the sum of the following terms:

     one-electron contribution =    -125.01216837 Ry
     hartree contribution      =      63.46284025 Ry
     xc contribution           =      -8.21164239 Ry
     ewald contribution        =      44.88522888 Ry

     convergence has been achieved in   9 iterations

     Forces acting on atoms (Ry/au):

     atom    1 type  1   force =     0.03248426    0.00000000   -0.06330938
     atom    2 type  1   force =    -0.03245081    0.00000000    0.06331207
     atom    3 type  2   force =    -0.04115006    0.00000000    0.00057534
     atom    4 type  2   force =     0.04111661    0.00000000   -0.00057804
     The non-local contrib.  to forces
     atom    1 type  1   force =    -0.03222029    0.00000000   -0.25293045
     atom    2 type  1   force =     0.03233126    0.00000000    0.25293632
     atom    3 type  2   force =     0.00000000    0.00000000    0.00000000
     atom    4 type  2   force =     0.00000000    0.00000000    0.00000000
     The ionic contribution  to forces
     atom    1 type  1   force =    -3.29683972    0.00000000   -0.62700853
     atom    2 type  1   force =     3.29683972    0.00000000    0.62700853
     atom    3 type  2   force =    -3.29973976    0.00000000   -0.01574774
     atom    4 type  2   force =     3.29973976    0.00000000    0.01574774
     The local contribution  to forces
     atom    1 type  1   force =     3.36156827    0.00000000    0.81663295
     atom    2 type  1   force =    -3.36159801    0.00000000   -0.81663229
     atom    3 type  2   force =     3.25860856    0.00000000    0.01632461
     atom    4 type  2   force =    -3.25861184    0.00000000   -0.01632451
     The core correction contribution to forces
     atom    1 type  1   force =     0.00000000    0.00000000    0.00000000
     atom    2 type  1   force =     0.00000000    0.00000000    0.00000000
     atom    3 type  2   force =     0.00000000    0.00000000    0.00000000
     atom    4 type  2   force =     0.00000000    0.00000000    0.00000000
     The Hubbard contrib.    to forces
     atom    1 type  1   force =     0.00000000    0.00000000    0.00000000
     atom    2 type  1   force =     0.00000000    0.00000000    0.00000000
     atom    3 type  2   force =     0.00000000    0.00000000    0.00000000
     atom    4 type  2   force =     0.00000000    0.00000000    0.00000000
     The SCF correction term to forces
     atom    1 type  1   force =    -0.00000774    0.00000000   -0.00000198
     atom    2 type  1   force =    -0.00000752    0.00000000    0.00000088
     atom    3 type  2   force =    -0.00000260    0.00000000   -0.00000015
     atom    4 type  2   force =     0.00000494    0.00000000    0.00000009

     Total force =     0.116230     Total SCF correction =     0.000012

     Writing output data file chain.save
 
     init_run     :      1.30s CPU      1.40s WALL (       1 calls)
     electrons    :     10.19s CPU     10.49s WALL (       1 calls)
     forces       :      0.06s CPU      0.08s WALL (       1 calls)

     Called by init_run:
     wfcinit      :      0.73s CPU      0.77s WALL (       1 calls)
     potinit      :      0.06s CPU      0.08s WALL (       1 calls)

     Called by electrons:
     c_bands      :      8.30s CPU      8.53s WALL (       9 calls)
     sum_band     :      1.51s CPU      1.58s WALL (       9 calls)
     v_of_rho     :      0.11s CPU      0.09s WALL (      10 calls)
     v_h          :      0.02s CPU      0.04s WALL (      10 calls)
     v_xc         :      0.09s CPU      0.05s WALL (      10 calls)
     mix_rho      :      0.11s CPU      0.11s WALL (       9 calls)

     Called by c_bands:
     init_us_2    :      0.05s CPU      0.10s WALL (     320 calls)
     cegterg      :      8.13s CPU      8.37s WALL (     144 calls)

     Called by sum_band:

     Called by *egterg:
     h_psi        :      7.95s CPU      8.32s WALL (     491 calls)
     g_psi        :      0.12s CPU      0.09s WALL (     331 calls)
     cdiaghg      :      0.10s CPU      0.09s WALL (     475 calls)
     cegterg:over :      0.24s CPU      0.17s WALL (     331 calls)
     cegterg:upda :      0.16s CPU      0.15s WALL (     331 calls)
     cegterg:last :      0.03s CPU      0.07s WALL (     144 calls)

     Called by h_psi:
     h_psi:vloc   :      7.83s CPU      8.17s WALL (     491 calls)
     h_psi:vnl    :      0.10s CPU      0.11s WALL (     491 calls)
     add_vuspsi   :      0.05s CPU      0.03s WALL (     491 calls)

     General routines
     calbec       :      0.05s CPU      0.08s WALL (     507 calls)
     fft          :      0.07s CPU      0.14s WALL (      41 calls)
     fftw         :      8.46s CPU      8.56s WALL (    5076 calls)
     davcio       :      0.11s CPU      0.12s WALL (     480 calls)
 
     Parallel routines
     fft_scatter  :      2.75s CPU      2.46s WALL (    5117 calls)
 
     PWSCF        :    11.88s CPU        12.58s WALL

 
   This run was terminated on:  17:31:49  30Oct2013            

=------------------------------------------------------------------------------=
   JOB DONE.
=------------------------------------------------------------------------------=
