
     Program PWSCF v.5.1 starts on 25Jul2018 at 23:25:55 

     This program is part of the open-source Quantum ESPRESSO suite
     for quantum simulation of materials; please cite
         "P. Giannozzi et al., J. Phys.:Condens. Matter 21 395502 (2009);
          URL http://www.quantum-espresso.org", 
     in publications or presentations arising from this work. More details at
     http://www.quantum-espresso.org/quote

     Parallel version (MPI), running on     1 processors
     Waiting for input...
     Reading input from standard input
Warning: card  &IONS ignored
Warning: card  / ignored

     Current dimensions of program PWSCF are:
     Max number of different atomic species (ntypx) = 10
     Max number of k-points (npk) =  40000
     Max angular momentum in pseudopotentials (lmaxx) =  3

     Atomic positions and unit cell read from directory:
     ./chain.save/

               file H.pz-vbc.UPF: wavefunction(s)  1S renormalized

     Subspace diagonalization in iterative solution of the eigenvalue problem:
     a serial algorithm will be used


     G-vector sticks info
     --------------------
     sticks:   dense  smooth     PW     G-vecs:    dense   smooth      PW
     Sum        3181    3181   1153                20877    20877    4437



     bravais-lattice index     =            8
     lattice parameter (alat)  =      20.0000  a.u.
     unit-cell volume          =    1244.5280 (a.u.)^3
     number of atoms/cell      =            4
     number of atomic types    =            2
     number of electrons       =        10.00
     number of Kohn-Sham states=           25
     kinetic-energy cutoff     =      25.0000  Ry
     charge density cutoff     =     100.0000  Ry
     Exchange-correlation      =  SLA  PZ   NOGX NOGC ( 1  1  0  0 0)

     celldm(1)=  20.000000  celldm(2)=   1.000000  celldm(3)=   0.155566
     celldm(4)=   0.000000  celldm(5)=   0.000000  celldm(6)=   0.000000

     crystal axes: (cart. coord. in units of alat)
               a(1) = (   1.000000   0.000000   0.000000 )  
               a(2) = (   0.000000   1.000000   0.000000 )  
               a(3) = (   0.000000   0.000000   0.155566 )  

     reciprocal axes: (cart. coord. in units 2 pi/alat)
               b(1) = (  1.000000  0.000000  0.000000 )  
               b(2) = (  0.000000  1.000000  0.000000 )  
               b(3) = (  0.000000  0.000000  6.428140 )  


     PseudoPot. # 1 for C  read from file:
     ./C.pz-vbc.UPF
     MD5 check sum: ab53dd623bfeb79c5a7b057bc96eae20
     Pseudo is Norm-conserving, Zval =  4.0
     Generated by new atomic code, or converted to UPF format
     Using radial grid of  269 points,  1 beta functions with: 
                l(1) =   0

     PseudoPot. # 2 for H  read from file:
     ./H.pz-vbc.UPF
     MD5 check sum: 90becb985b714f09656c73597998d266
     Pseudo is Norm-conserving, Zval =  1.0
     Generated by new atomic code, or converted to UPF format
     Using radial grid of  131 points,  0 beta functions with: 

     atomic species   valence    mass     pseudopotential
        C              4.00     1.00000     C ( 1.00)
        H              1.00     1.00000     H ( 1.00)

      2 Sym. Ops. (no inversion) found
          (note:  2 additional sym.ops. were found but ignored
           their fractional translations are incommensurate with FFT grid)

                                    s                        frac. trans.

      isym =  1     identity                                     

 cryst.   s( 1) = (     1          0          0      )
                  (     0          1          0      )
                  (     0          0          1      )

 cart.    s( 1) = (  1.0000000  0.0000000  0.0000000 )
                  (  0.0000000  1.0000000  0.0000000 )
                  (  0.0000000  0.0000000  1.0000000 )


      isym =  2     inv. 180 deg rotation - cart. axis [0,1,0]   

 cryst.   s( 2) = (     1          0          0      )
                  (     0         -1          0      )
                  (     0          0          1      )

 cart.    s( 2) = (  1.0000000  0.0000000  0.0000000 )
                  (  0.0000000 -1.0000000  0.0000000 )
                  (  0.0000000  0.0000000  1.0000000 )


     point group C_s (m)    
     there are  2 classes
     the character table:

       E     s    
A'     1.00  1.00
A''    1.00 -1.00

     the symmetry operations in each class:
     E        1
     s        2

   Cartesian axes

     site n.     atom                  positions (alat units)
         1           C   tau(   1) = (   0.0000000   0.0000000  -0.0553485  )
         2           C   tau(   2) = (   0.0612594   0.0000000   0.0553488  )
         3           H   tau(   3) = (  -0.1017609   0.0000000  -0.0557749  )
         4           H   tau(   4) = (   0.1630203   0.0000000   0.0557752  )

   Crystallographic axes

     site n.     atom                  positions (cryst. coord.)
         1           C   tau(   1) = (  0.0000000  0.0000000 -0.3557879  )
         2           C   tau(   2) = (  0.0612594  0.0000000  0.3557899  )
         3           H   tau(   3) = ( -0.1017609  0.0000000 -0.3585287  )
         4           H   tau(   4) = (  0.1630203  0.0000000  0.3585307  )

     number of k points=     6
                       cart. coord. in units 2pi/alat
        k(    1) = (   0.0000000   0.0000000   0.0000000), wk =   0.2000000
        k(    2) = (   0.0000000   0.0000000   0.6428140), wk =   0.4000000
        k(    3) = (   0.0000000   0.0000000   1.2856280), wk =   0.4000000
        k(    4) = (   0.0000000   0.0000000   1.9284419), wk =   0.4000000
        k(    5) = (   0.0000000   0.0000000   2.5712559), wk =   0.4000000
        k(    6) = (   0.0000000   0.0000000  -3.2140699), wk =   0.2000000

                       cryst. coord.
        k(    1) = (   0.0000000   0.0000000   0.0000000), wk =   0.2000000
        k(    2) = (   0.0000000   0.0000000   0.1000000), wk =   0.4000000
        k(    3) = (   0.0000000   0.0000000   0.2000000), wk =   0.4000000
        k(    4) = (   0.0000000   0.0000000   0.3000000), wk =   0.4000000
        k(    5) = (   0.0000000   0.0000000   0.4000000), wk =   0.4000000
        k(    6) = (   0.0000000   0.0000000  -0.5000000), wk =   0.2000000

     Dense  grid:    20877 G-vectors     FFT dimensions: (  64,  64,   9)

     Largest allocated arrays     est. size (Mb)     dimensions
        Kohn-Sham Wavefunctions         1.02 Mb     (    2677,   25)
        NL pseudopotentials             0.08 Mb     (    2677,    2)
        Each V/rho on FFT grid          0.56 Mb     (   36864)
        Each G-vector array             0.16 Mb     (   20877)
        G-vector shells                 0.01 Mb     (    1294)
     Largest temporary arrays     est. size (Mb)     dimensions
        Auxiliary wavefunctions         4.08 Mb     (    2677,  100)
        Each subspace H/S matrix        0.15 Mb     (     100,  100)
        Each <psi_i|beta_j> matrix      0.00 Mb     (       2,   25)

     The potential is recalculated from file :
     ./chain.save/charge-density.dat

     Starting wfc are   10 randomized atomic wfcs +   15 random wfc

     Band Structure Calculation
     Davidson diagonalization with overlap

     Computing kpt #:     1
     total cpu time spent up to now is        1.0 secs

     Computing kpt #:     2
     total cpu time spent up to now is        1.9 secs

     Computing kpt #:     3
     total cpu time spent up to now is        2.9 secs

     Computing kpt #:     4
     total cpu time spent up to now is        3.9 secs

     Computing kpt #:     5
     total cpu time spent up to now is        5.0 secs

     Computing kpt #:     6
     total cpu time spent up to now is        6.2 secs

     ethr =  1.00E-10,  avg # of iterations = 28.5

     total cpu time spent up to now is        6.2 secs

     End of band structure calculation

          k = 0.0000 0.0000 0.0000 (  2677 PWs)   bands (ev):

   -26.1144 -17.4168 -15.0970 -12.4350  -1.1843  -0.4472  -0.2714   0.4081
     0.6221   1.6493   2.0740   2.2799   2.7701   3.2107   3.2546   4.1566
     4.5610   5.1385   5.3012   6.0574   6.4086   6.4201   6.6908   6.8290
     6.9439

     occupation numbers 
     1.0000   1.0000   1.0000   1.0000   1.0000   0.0000   0.0000   0.0000
     0.0000   0.0000   0.0000   0.0000   0.0000   0.0000   0.0000   0.0000
     0.0000   0.0000   0.0000   0.0000   0.0000   0.0000   0.0000   0.0000
     0.0000

          k = 0.0000 0.0000 0.6428 (  2669 PWs)   bands (ev):

   -25.8513 -17.1101 -14.6073 -12.0672  -2.3045   0.2177   0.2565   0.8729
     1.1690   1.7054   2.4809   2.8161   3.3207   3.4892   3.7929   4.3963
     5.1113   5.5640   5.7547   6.4910   6.9532   6.9756   7.1792   7.3882
     7.4926

     occupation numbers 
     1.0000   1.0000   1.0000   1.0000   1.0000   0.0000   0.0000   0.0000
     0.0000   0.0000   0.0000   0.0000   0.0000   0.0000   0.0000   0.0000
     0.0000   0.0000   0.0000   0.0000   0.0000   0.0000   0.0000   0.0000
     0.0000

          k = 0.0000 0.0000 1.2856 (  2661 PWs)   bands (ev):

   -25.0808 -16.3468 -13.1854 -11.0369  -5.5307   1.8082   1.9034   2.2833
     2.7904   2.8024   4.0797   4.4510   4.8520   4.9652   5.3905   5.8325
     6.7564   7.0605   7.3766   8.0998   8.5704   8.6399   8.7654   9.0363
     9.1280

     occupation numbers 
     1.0000   1.0000   1.0000   1.0000   1.0000   0.0000   0.0000   0.0000
     0.0000   0.0000   0.0000   0.0000   0.0000   0.0000   0.0000   0.0000
     0.0000   0.0000   0.0000   0.0000   0.0000   0.0000   0.0000   0.0000
     0.0000

          k = 0.0000 0.0000 1.9284 (  2625 PWs)   bands (ev):

   -23.7999 -15.8598 -10.9318  -9.6596  -8.0719   4.1429   4.5037   4.5698
     5.0924   5.4944   6.7626   7.1246   7.2081   7.6033   7.9575   8.3596
     9.4512   9.6009  10.0249  10.8035  10.9488  11.0235  11.4107  11.7224
    11.7773

     occupation numbers 
     1.0000   1.0000   1.0000   1.0000   1.0000   0.0000   0.0000   0.0000
     0.0000   0.0000   0.0000   0.0000   0.0000   0.0000   0.0000   0.0000
     0.0000   0.0000   0.0000   0.0000   0.0000   0.0000   0.0000   0.0000
     0.0000

          k = 0.0000 0.0000 2.5713 (  2581 PWs)   bands (ev):

   -22.1152 -16.9122  -8.7785  -8.2687  -7.8123   4.9428   5.5880   7.6711
     8.5555   9.1253   9.7126  10.1781  10.4124  10.9731  11.3616  11.6687
    11.9787  12.6373  13.1626  13.5531  13.7912  14.2892  14.9183  15.2651
    15.2696

     occupation numbers 
     1.0000   1.0000   1.0000   1.0000   1.0000   0.0000   0.0000   0.0000
     0.0000   0.0000   0.0000   0.0000   0.0000   0.0000   0.0000   0.0000
     0.0000   0.0000   0.0000   0.0000   0.0000   0.0000   0.0000   0.0000
     0.0000

          k = 0.0000 0.0000-3.2141 (  2532 PWs)   bands (ev):

   -20.8088 -18.1656  -7.8626  -7.6624  -6.7362   3.5777   5.1265   9.2795
    11.2918  11.2969  12.9203  13.5354  14.1249  14.1385  14.6731  14.8868
    15.0086  15.0113  15.5578  15.6847  15.8322  16.1275  16.5289  16.5897
    16.6660

     occupation numbers 
     1.0000   1.0000   1.0000   1.0000   1.0000   0.0000   0.0000   0.0000
     0.0000   0.0000   0.0000   0.0000   0.0000   0.0000   0.0000   0.0000
     0.0000   0.0000   0.0000   0.0000   0.0000   0.0000   0.0000   0.0000
     0.0000

     highest occupied, lowest unoccupied level (ev):    -1.1843   -0.4472

     Writing output data file chain.save

     init_run     :      0.05s CPU      0.05s WALL (       1 calls)
     electrons    :     11.06s CPU      6.08s WALL (       1 calls)

     Called by init_run:
     wfcinit      :      0.00s CPU      0.00s WALL (       1 calls)
     potinit      :      0.01s CPU      0.01s WALL (       1 calls)

     Called by electrons:
     c_bands      :     11.05s CPU      6.08s WALL (       1 calls)
     v_of_rho     :      0.00s CPU      0.01s WALL (       1 calls)
     v_h          :      0.00s CPU      0.00s WALL (       1 calls)
     v_xc         :      0.00s CPU      0.00s WALL (       1 calls)

     Called by c_bands:
     init_us_2    :      0.00s CPU      0.00s WALL (       6 calls)
     cegterg      :     10.57s CPU      5.76s WALL (      12 calls)

     Called by sum_band:

     Called by *egterg:
     h_psi        :      7.72s CPU      4.56s WALL (     189 calls)
     g_psi        :      0.09s CPU      0.04s WALL (     171 calls)
     cdiaghg      :      0.94s CPU      0.48s WALL (     177 calls)
     cegterg:over :      0.78s CPU      0.35s WALL (     171 calls)
     cegterg:upda :      0.82s CPU      0.33s WALL (     171 calls)
     cegterg:last :      0.47s CPU      0.16s WALL (      36 calls)

     Called by h_psi:
     h_psi:vloc   :      7.52s CPU      4.46s WALL (     189 calls)
     h_psi:vnl    :      0.12s CPU      0.07s WALL (     189 calls)
     add_vuspsi   :      0.06s CPU      0.03s WALL (     189 calls)

     General routines
     calbec       :      0.07s CPU      0.04s WALL (     189 calls)
     fft          :      0.00s CPU      0.00s WALL (       3 calls)
     fftw         :      6.95s CPU      4.11s WALL (    5264 calls)

     Parallel routines
     fft_scatter  :      1.74s CPU      1.06s WALL (    5267 calls)

     PWSCF        :    11.26s CPU         6.24s WALL


   This run was terminated on:  23:26: 1  25Jul2018            

=------------------------------------------------------------------------------=
   JOB DONE.
=------------------------------------------------------------------------------=
