
     Program PWSCF v.5.1 starts on 25Jul2018 at 23:25:47 

     This program is part of the open-source Quantum ESPRESSO suite
     for quantum simulation of materials; please cite
         "P. Giannozzi et al., J. Phys.:Condens. Matter 21 395502 (2009);
          URL http://www.quantum-espresso.org", 
     in publications or presentations arising from this work. More details at
     http://www.quantum-espresso.org/quote

     Parallel version (MPI), running on     1 processors
     Waiting for input...
     Reading input from standard input
Warning: card  &IONS ignored
Warning: card  / ignored

     Current dimensions of program PWSCF are:
     Max number of different atomic species (ntypx) = 10
     Max number of k-points (npk) =  40000
     Max angular momentum in pseudopotentials (lmaxx) =  3
               file H.pz-vbc.UPF: wavefunction(s)  1S renormalized

     Subspace diagonalization in iterative solution of the eigenvalue problem:
     a serial algorithm will be used


     G-vector sticks info
     --------------------
     sticks:   dense  smooth     PW     G-vecs:    dense   smooth      PW
     Sum        3181    3181   1153                20877    20877    4437



     bravais-lattice index     =            8
     lattice parameter (alat)  =      20.0000  a.u.
     unit-cell volume          =    1244.5280 (a.u.)^3
     number of atoms/cell      =            4
     number of atomic types    =            2
     number of electrons       =        10.00
     number of Kohn-Sham states=            5
     kinetic-energy cutoff     =      25.0000  Ry
     charge density cutoff     =     100.0000  Ry
     convergence threshold     =      1.0E-08
     mixing beta               =       0.4000
     number of iterations used =            8  plain     mixing
     Exchange-correlation      =  SLA  PZ   NOGX NOGC ( 1  1  0  0 0)

     celldm(1)=  20.000000  celldm(2)=   1.000000  celldm(3)=   0.155566
     celldm(4)=   0.000000  celldm(5)=   0.000000  celldm(6)=   0.000000

     crystal axes: (cart. coord. in units of alat)
               a(1) = (   1.000000   0.000000   0.000000 )  
               a(2) = (   0.000000   1.000000   0.000000 )  
               a(3) = (   0.000000   0.000000   0.155566 )  

     reciprocal axes: (cart. coord. in units 2 pi/alat)
               b(1) = (  1.000000  0.000000  0.000000 )  
               b(2) = (  0.000000  1.000000  0.000000 )  
               b(3) = (  0.000000  0.000000  6.428140 )  


     PseudoPot. # 1 for C  read from file:
     ./C.pz-vbc.UPF
     MD5 check sum: ab53dd623bfeb79c5a7b057bc96eae20
     Pseudo is Norm-conserving, Zval =  4.0
     Generated by new atomic code, or converted to UPF format
     Using radial grid of  269 points,  1 beta functions with: 
                l(1) =   0

     PseudoPot. # 2 for H  read from file:
     ./H.pz-vbc.UPF
     MD5 check sum: 90becb985b714f09656c73597998d266
     Pseudo is Norm-conserving, Zval =  1.0
     Generated by new atomic code, or converted to UPF format
     Using radial grid of  131 points,  0 beta functions with: 

     atomic species   valence    mass     pseudopotential
        C              4.00     1.00000     C ( 1.00)
        H              1.00     1.00000     H ( 1.00)

      2 Sym. Ops. (no inversion) found
          (note:  2 additional sym.ops. were found but ignored
           their fractional translations are incommensurate with FFT grid)

                                    s                        frac. trans.

      isym =  1     identity                                     

 cryst.   s( 1) = (     1          0          0      )
                  (     0          1          0      )
                  (     0          0          1      )

 cart.    s( 1) = (  1.0000000  0.0000000  0.0000000 )
                  (  0.0000000  1.0000000  0.0000000 )
                  (  0.0000000  0.0000000  1.0000000 )


      isym =  2     inv. 180 deg rotation - cart. axis [0,1,0]   

 cryst.   s( 2) = (     1          0          0      )
                  (     0         -1          0      )
                  (     0          0          1      )

 cart.    s( 2) = (  1.0000000  0.0000000  0.0000000 )
                  (  0.0000000 -1.0000000  0.0000000 )
                  (  0.0000000  0.0000000  1.0000000 )


     point group C_s (m)    
     there are  2 classes
     the character table:

       E     s    
A'     1.00  1.00
A''    1.00 -1.00

     the symmetry operations in each class:
     E        1
     s        2

   Cartesian axes

     site n.     atom                  positions (alat units)
         1           C   tau(   1) = (   0.0000000   0.0000000  -0.0553485  )
         2           C   tau(   2) = (   0.0612594   0.0000000   0.0553488  )
         3           H   tau(   3) = (  -0.1017609   0.0000000  -0.0557749  )
         4           H   tau(   4) = (   0.1630203   0.0000000   0.0557752  )

   Crystallographic axes

     site n.     atom                  positions (cryst. coord.)
         1           C   tau(   1) = (  0.0000000  0.0000000 -0.3557879  )
         2           C   tau(   2) = (  0.0612594  0.0000000  0.3557899  )
         3           H   tau(   3) = ( -0.1017609  0.0000000 -0.3585287  )
         4           H   tau(   4) = (  0.1630203  0.0000000  0.3585307  )

     number of k points=     6
                       cart. coord. in units 2pi/alat
        k(    1) = (   0.0000000   0.0000000   0.0000000), wk =   0.2000000
        k(    2) = (   0.0000000   0.0000000   0.6428140), wk =   0.4000000
        k(    3) = (   0.0000000   0.0000000   1.2856280), wk =   0.4000000
        k(    4) = (   0.0000000   0.0000000   1.9284419), wk =   0.4000000
        k(    5) = (   0.0000000   0.0000000   2.5712559), wk =   0.4000000
        k(    6) = (   0.0000000   0.0000000  -3.2140699), wk =   0.2000000

                       cryst. coord.
        k(    1) = (   0.0000000   0.0000000   0.0000000), wk =   0.2000000
        k(    2) = (   0.0000000   0.0000000   0.1000000), wk =   0.4000000
        k(    3) = (   0.0000000   0.0000000   0.2000000), wk =   0.4000000
        k(    4) = (   0.0000000   0.0000000   0.3000000), wk =   0.4000000
        k(    5) = (   0.0000000   0.0000000   0.4000000), wk =   0.4000000
        k(    6) = (   0.0000000   0.0000000  -0.5000000), wk =   0.2000000

     Dense  grid:    20877 G-vectors     FFT dimensions: (  64,  64,   9)

     Largest allocated arrays     est. size (Mb)     dimensions
        Kohn-Sham Wavefunctions         0.20 Mb     (    2677,    5)
        NL pseudopotentials             0.08 Mb     (    2677,    2)
        Each V/rho on FFT grid          0.56 Mb     (   36864)
        Each G-vector array             0.16 Mb     (   20877)
        G-vector shells                 0.01 Mb     (    1294)
     Largest temporary arrays     est. size (Mb)     dimensions
        Auxiliary wavefunctions         0.82 Mb     (    2677,   20)
        Each subspace H/S matrix        0.01 Mb     (      20,   20)
        Each <psi_i|beta_j> matrix      0.00 Mb     (       2,    5)
        Arrays for rho mixing           4.50 Mb     (   36864,    8)

     Initial potential from superposition of free atoms
     Check: negative starting charge=   -0.005742

     starting charge    9.99989, renormalised to   10.00000

     negative rho (up, down):  5.742E-03 0.000E+00
     Starting wfc are   10 randomized atomic wfcs

     total cpu time spent up to now is        0.2 secs

     per-process dynamical memory:    13.2 Mb

     Self-consistent Calculation

     iteration #  1     ecut=    25.00 Ry     beta=0.40
     Davidson diagonalization with overlap
     ethr =  1.00E-02,  avg # of iterations =  3.0

     negative rho (up, down):  3.263E-03 0.000E+00

     total cpu time spent up to now is        0.5 secs

     total energy              =     -21.92017431 Ry
     Harris-Foulkes estimate   =     -23.16480399 Ry
     estimated scf accuracy    <       2.38452962 Ry

     iteration #  2     ecut=    25.00 Ry     beta=0.40
     Davidson diagonalization with overlap
     ethr =  1.00E-02,  avg # of iterations =  2.5

     negative rho (up, down):  1.162E-03 0.000E+00

     total cpu time spent up to now is        0.7 secs

     total energy              =     -22.22893636 Ry
     Harris-Foulkes estimate   =     -22.29003478 Ry
     estimated scf accuracy    <       0.15584887 Ry

     iteration #  3     ecut=    25.00 Ry     beta=0.40
     Davidson diagonalization with overlap
     ethr =  1.56E-03,  avg # of iterations =  1.3

     negative rho (up, down):  1.246E-06 0.000E+00

     total cpu time spent up to now is        0.9 secs

     total energy              =     -22.22043830 Ry
     Harris-Foulkes estimate   =     -22.23679533 Ry
     estimated scf accuracy    <       0.03260728 Ry

     iteration #  4     ecut=    25.00 Ry     beta=0.40
     Davidson diagonalization with overlap
     ethr =  3.26E-04,  avg # of iterations =  2.5

     total cpu time spent up to now is        1.1 secs

     total energy              =     -22.22633989 Ry
     Harris-Foulkes estimate   =     -22.22694954 Ry
     estimated scf accuracy    <       0.00182684 Ry

     iteration #  5     ecut=    25.00 Ry     beta=0.40
     Davidson diagonalization with overlap
     ethr =  1.83E-05,  avg # of iterations =  3.3

     total cpu time spent up to now is        1.4 secs

     total energy              =     -22.23759266 Ry
     Harris-Foulkes estimate   =     -22.23812830 Ry
     estimated scf accuracy    <       0.00261916 Ry

     iteration #  6     ecut=    25.00 Ry     beta=0.40
     Davidson diagonalization with overlap
     ethr =  1.83E-05,  avg # of iterations =  1.2

     negative rho (up, down):  2.758E-03 0.000E+00

     total cpu time spent up to now is        1.6 secs

     total energy              =     -22.23738149 Ry
     Harris-Foulkes estimate   =     -22.23765916 Ry
     estimated scf accuracy    <       0.00123229 Ry

     iteration #  7     ecut=    25.00 Ry     beta=0.40
     Davidson diagonalization with overlap
     ethr =  1.23E-05,  avg # of iterations =  2.5

     total cpu time spent up to now is        1.8 secs

     total energy              =     -22.23747539 Ry
     Harris-Foulkes estimate   =     -22.23763363 Ry
     estimated scf accuracy    <       0.00026260 Ry

     iteration #  8     ecut=    25.00 Ry     beta=0.40
     Davidson diagonalization with overlap
     ethr =  2.63E-06,  avg # of iterations =  2.3

     total cpu time spent up to now is        2.0 secs

     total energy              =     -22.23750757 Ry
     Harris-Foulkes estimate   =     -22.23750706 Ry
     estimated scf accuracy    <       0.00000952 Ry

     iteration #  9     ecut=    25.00 Ry     beta=0.40
     Davidson diagonalization with overlap
     ethr =  9.52E-08,  avg # of iterations =  3.2

     total cpu time spent up to now is        2.2 secs

     total energy              =     -22.23751120 Ry
     Harris-Foulkes estimate   =     -22.23751181 Ry
     estimated scf accuracy    <       0.00001185 Ry

     iteration # 10     ecut=    25.00 Ry     beta=0.40
     Davidson diagonalization with overlap
     ethr =  9.52E-08,  avg # of iterations =  1.5

     total cpu time spent up to now is        2.4 secs

     total energy              =     -22.23751197 Ry
     Harris-Foulkes estimate   =     -22.23751162 Ry
     estimated scf accuracy    <       0.00000406 Ry

     iteration # 11     ecut=    25.00 Ry     beta=0.40
     Davidson diagonalization with overlap
     ethr =  4.06E-08,  avg # of iterations =  3.2

     total cpu time spent up to now is        2.6 secs

     total energy              =     -22.23751287 Ry
     Harris-Foulkes estimate   =     -22.23751296 Ry
     estimated scf accuracy    <       0.00000047 Ry

     iteration # 12     ecut=    25.00 Ry     beta=0.40
     Davidson diagonalization with overlap
     ethr =  4.70E-09,  avg # of iterations =  2.2

     total cpu time spent up to now is        2.8 secs

     total energy              =     -22.23751289 Ry
     Harris-Foulkes estimate   =     -22.23751290 Ry
     estimated scf accuracy    <       0.00000018 Ry

     iteration # 13     ecut=    25.00 Ry     beta=0.40
     Davidson diagonalization with overlap
     ethr =  1.81E-09,  avg # of iterations =  2.3

     total cpu time spent up to now is        3.0 secs

     total energy              =     -22.23751291 Ry
     Harris-Foulkes estimate   =     -22.23751291 Ry
     estimated scf accuracy    <       0.00000006 Ry

     iteration # 14     ecut=    25.00 Ry     beta=0.40
     Davidson diagonalization with overlap
     ethr =  5.63E-10,  avg # of iterations =  2.8

     total cpu time spent up to now is        3.2 secs

     End of self-consistent calculation

          k = 0.0000 0.0000 0.0000 (  2677 PWs)   bands (ev):

   -26.1145 -17.4169 -15.0971 -12.4351  -1.1843

     occupation numbers 
     1.0000   1.0000   1.0000   1.0000   1.0000

          k = 0.0000 0.0000 0.6428 (  2669 PWs)   bands (ev):

   -25.8515 -17.1101 -14.6075 -12.0673  -2.3045

     occupation numbers 
     1.0000   1.0000   1.0000   1.0000   1.0000

          k = 0.0000 0.0000 1.2856 (  2661 PWs)   bands (ev):

   -25.0810 -16.3469 -13.1856 -11.0369  -5.5308

     occupation numbers 
     1.0000   1.0000   1.0000   1.0000   1.0000

          k = 0.0000 0.0000 1.9284 (  2625 PWs)   bands (ev):

   -23.8001 -15.8599 -10.9320  -9.6597  -8.0719

     occupation numbers 
     1.0000   1.0000   1.0000   1.0000   1.0000

          k = 0.0000 0.0000 2.5713 (  2581 PWs)   bands (ev):

   -22.1153 -16.9124  -8.7786  -8.2688  -7.8124

     occupation numbers 
     1.0000   1.0000   1.0000   1.0000   1.0000

          k = 0.0000 0.0000-3.2141 (  2532 PWs)   bands (ev):

   -20.8090 -18.1657  -7.8626  -7.6624  -6.7363

     occupation numbers 
     1.0000   1.0000   1.0000   1.0000   1.0000

     highest occupied level (ev):    -1.1843

!    total energy              =     -22.23751292 Ry
     Harris-Foulkes estimate   =     -22.23751292 Ry
     estimated scf accuracy    <          1.6E-09 Ry

     The total energy is the sum of the following terms:

     one-electron contribution =    -138.96585917 Ry
     hartree contribution      =      70.57811398 Ry
     xc contribution           =      -9.35801769 Ry
     ewald contribution        =      55.50824997 Ry

     convergence has been achieved in  14 iterations

     Forces acting on atoms (Ry/au):

     atom    1 type  1   force =    -4.91469490    0.00000000    3.42701443
     atom    2 type  1   force =     4.91485204    0.00000000   -3.42703791
     atom    3 type  2   force =    -0.12409147    0.00000000    0.02865118
     atom    4 type  2   force =     0.12393433    0.00000000   -0.02862770
     The non-local contrib.  to forces
     atom    1 type  1   force =    -3.79557239    0.00000000    3.11008793
     atom    2 type  1   force =     3.79610981    0.00000000   -3.11013706
     atom    3 type  2   force =     0.00000000    0.00000000    0.00000000
     atom    4 type  2   force =     0.00000000    0.00000000    0.00000000
     The ionic contribution  to forces
     atom    1 type  1   force =   -13.25680451    0.00000000    4.85672676
     atom    2 type  1   force =    13.25680451    0.00000000   -4.85672676
     atom    3 type  2   force =    -4.30180323   -0.00000000    0.00975972
     atom    4 type  2   force =     4.30180323   -0.00000000   -0.00975972
     The local contribution  to forces
     atom    1 type  1   force =    12.13781561   -0.00000000   -4.53981192
     atom    2 type  1   force =   -12.13794891   -0.00000000    4.53981290
     atom    3 type  2   force =     4.17780714   -0.00000000    0.01887995
     atom    4 type  2   force =    -4.17778358   -0.00000000   -0.01887958
     The core correction contribution to forces
     atom    1 type  1   force =     0.00000000    0.00000000    0.00000000
     atom    2 type  1   force =     0.00000000    0.00000000    0.00000000
     atom    3 type  2   force =     0.00000000    0.00000000    0.00000000
     atom    4 type  2   force =     0.00000000    0.00000000    0.00000000
     The Hubbard contrib.    to forces
     atom    1 type  1   force =     0.00000000    0.00000000    0.00000000
     atom    2 type  1   force =     0.00000000    0.00000000    0.00000000
     atom    3 type  2   force =     0.00000000    0.00000000    0.00000000
     atom    4 type  2   force =     0.00000000    0.00000000    0.00000000
     The SCF correction term to forces
     atom    1 type  1   force =    -0.00005068    0.00000000    0.00000022
     atom    2 type  1   force =    -0.00003043   -0.00000000    0.00000157
     atom    3 type  2   force =    -0.00001244   -0.00000000    0.00000007
     atom    4 type  2   force =    -0.00000238   -0.00000000    0.00000016

     Total force =     8.475341     Total SCF correction =     0.000060

     Writing output data file chain.save

     init_run     :      0.30s CPU      0.20s WALL (       1 calls)
     electrons    :      4.84s CPU      3.03s WALL (       1 calls)
     forces       :      0.05s CPU      0.04s WALL (       1 calls)

     Called by init_run:
     wfcinit      :      0.22s CPU      0.13s WALL (       1 calls)
     potinit      :      0.02s CPU      0.02s WALL (       1 calls)

     Called by electrons:
     c_bands      :      3.60s CPU      2.25s WALL (      14 calls)
     sum_band     :      0.90s CPU      0.55s WALL (      14 calls)
     v_of_rho     :      0.14s CPU      0.10s WALL (      15 calls)
     v_h          :      0.05s CPU      0.03s WALL (      15 calls)
     v_xc         :      0.10s CPU      0.07s WALL (      15 calls)
     mix_rho      :      0.17s CPU      0.12s WALL (      14 calls)

     Called by c_bands:
     init_us_2    :      0.06s CPU      0.03s WALL (     180 calls)
     cegterg      :      3.53s CPU      2.22s WALL (      84 calls)

     Called by sum_band:

     Called by *egterg:
     h_psi        :      3.34s CPU      2.08s WALL (     293 calls)
     g_psi        :      0.03s CPU      0.01s WALL (     203 calls)
     cdiaghg      :      0.07s CPU      0.04s WALL (     287 calls)
     cegterg:over :      0.07s CPU      0.05s WALL (     203 calls)
     cegterg:upda :      0.09s CPU      0.06s WALL (     203 calls)
     cegterg:last :      0.02s CPU      0.02s WALL (      85 calls)

     Called by h_psi:
     h_psi:vloc   :      3.24s CPU      2.02s WALL (     293 calls)
     h_psi:vnl    :      0.08s CPU      0.04s WALL (     293 calls)
     add_vuspsi   :      0.04s CPU      0.02s WALL (     293 calls)

     General routines
     calbec       :      0.04s CPU      0.02s WALL (     299 calls)
     fft          :      0.12s CPU      0.09s WALL (      61 calls)
     fftw         :      3.67s CPU      2.26s WALL (    2690 calls)

     Parallel routines
     fft_scatter  :      1.08s CPU      0.64s WALL (    2751 calls)

     PWSCF        :     5.24s CPU         3.33s WALL


   This run was terminated on:  23:25:50  25Jul2018            

=------------------------------------------------------------------------------=
   JOB DONE.
=------------------------------------------------------------------------------=
