
     Program PWSCF v.6.5 starts on  6Oct2020 at 16:38:22 

     This program is part of the open-source Quantum ESPRESSO suite
     for quantum simulation of materials; please cite
         "P. Giannozzi et al., J. Phys.:Condens. Matter 21 395502 (2009);
         "P. Giannozzi et al., J. Phys.:Condens. Matter 29 465901 (2017);
          URL http://www.quantum-espresso.org", 
     in publications or presentations arising from this work. More details at
     http://www.quantum-espresso.org/quote

     Parallel version (MPI), running on     1 processors

     MPI processes distributed on     1 nodes
     Waiting for input...
     Reading input from standard input

     Current dimensions of program PWSCF are:
     Max number of different atomic species (ntypx) = 10
     Max number of k-points (npk) =  40000
     Max angular momentum in pseudopotentials (lmaxx) =  3

     Atomic positions and unit cell read from directory:
     ./CH4_3dist.save/                                                                                                                                                                                                                                               

               file H.pbe-mt_fhi.UPF: wavefunction(s)  2p 4f renormalized
               file C.pbe-mt_fhi.UPF: wavefunction(s)  4f renormalized

     gamma-point specific algorithms are used

     Subspace diagonalization in iterative solution of the eigenvalue problem:
     a serial algorithm will be used


     G-vector sticks info
     --------------------
     sticks:   dense  smooth     PW     G-vecs:    dense   smooth      PW
     Sum        1129    1129    293                28671    28671    3695


     Title: 
     CH4_3dist                                                                  


     bravais-lattice index     =            8
     lattice parameter (alat)  =       9.4486  a.u.
     unit-cell volume          =     843.5418 (a.u.)^3
     number of atoms/cell      =            5
     number of atomic types    =            2
     number of electrons       =         8.00
     number of Kohn-Sham states=           20
     kinetic-energy cutoff     =      40.0000  Ry
     charge density cutoff     =     160.0000  Ry
     Exchange-correlation= PBE
                           (   1   4   3   4   0   0   0)

     celldm(1)=   9.448631  celldm(2)=   1.000000  celldm(3)=   1.000000
     celldm(4)=   0.000000  celldm(5)=   0.000000  celldm(6)=   0.000000

     crystal axes: (cart. coord. in units of alat)
               a(1) = (   1.000000   0.000000   0.000000 )  
               a(2) = (   0.000000   1.000000   0.000000 )  
               a(3) = (   0.000000   0.000000   1.000000 )  

     reciprocal axes: (cart. coord. in units 2 pi/alat)
               b(1) = (  1.000000  0.000000  0.000000 )  
               b(2) = (  0.000000  1.000000  0.000000 )  
               b(3) = (  0.000000  0.000000  1.000000 )  


     PseudoPot. # 1 for H  read from file:
     ./H.pbe-mt_fhi.UPF
     MD5 check sum: a19bd5488733b3d98581df861506e80d
     Pseudo is Norm-conserving, Zval =  1.0
     Generated using FHI98PP, converted with fhi2upf.x v.5.0.2
     Using radial grid of  387 points,  3 beta functions with: 
                l(1) =   0
                l(2) =   1
                l(3) =   3

     PseudoPot. # 2 for C  read from file:
     ./C.pbe-mt_fhi.UPF
     MD5 check sum: 058ca341f9d6d5327d9962fd88a91b65
     Pseudo is Norm-conserving, Zval =  4.0
     Generated using FHI98PP, converted with fhi2upf.x v.5.0.2
     Using radial grid of  461 points,  3 beta functions with: 
                l(1) =   0
                l(2) =   1
                l(3) =   3

     atomic species   valence    mass     pseudopotential
        H              1.00     1.00794     H ( 1.00)
        C              4.00    12.01070     C ( 1.00)

     No symmetry found


                                    s                        frac. trans.

      isym =  1     identity                                     

 cryst.   s( 1) = (     1          0          0      )
                  (     0          1          0      )
                  (     0          0          1      )

 cart.    s( 1) = (  1.0000000  0.0000000  0.0000000 )
                  (  0.0000000  1.0000000  0.0000000 )
                  (  0.0000000  0.0000000  1.0000000 )


     point group C_1 (1)    
     there are  1 classes
     the character table:

       E    
A      1.00

     the symmetry operations in each class and the name of the first element:

     E        1
          identity                                               

   Cartesian axes

     site n.     atom                  positions (alat units)
         1           C   tau(   1) = (   0.0000000   0.0000000   0.0000000  )
         2           H   tau(   2) = (   0.1215000   0.1215000   0.1215000  )
         3           H   tau(   3) = (  -0.1485000  -0.1485000   0.1485000  )
         4           H   tau(   4) = (   0.1620000  -0.1620000  -0.1620000  )
         5           H   tau(   5) = (  -0.1350000   0.1350000  -0.1350000  )

   Crystallographic axes

     site n.     atom                  positions (cryst. coord.)
         1           C   tau(   1) = (  0.0000000  0.0000000  0.0000000  )
         2           H   tau(   2) = (  0.1215000  0.1215000  0.1215000  )
         3           H   tau(   3) = ( -0.1485000 -0.1485000  0.1485000  )
         4           H   tau(   4) = (  0.1620000 -0.1620000 -0.1620000  )
         5           H   tau(   5) = ( -0.1350000  0.1350000 -0.1350000  )

     number of k points=     1  Methfessel-Paxton smearing, width (Ry)=  0.0007
                       cart. coord. in units 2pi/alat
        k(    1) = (   0.0000000   0.0000000   0.0000000), wk =   2.0000000

                       cryst. coord.
        k(    1) = (   0.0000000   0.0000000   0.0000000), wk =   2.0000000

     Dense  grid:    14336 G-vectors     FFT dimensions: (  40,  40,  40)

     Dynamical RAM for                 wfc:       0.55 MB

     Dynamical RAM for     wfc (w. buffer):       0.55 MB

     Dynamical RAM for           str. fact:       0.44 MB

     Dynamical RAM for           local pot:       0.00 MB

     Dynamical RAM for          nlocal pot:       1.51 MB

     Dynamical RAM for                qrad:       1.22 MB

     Dynamical RAM for          rho,v,vnew:       2.12 MB

     Dynamical RAM for           G-vectors:       0.93 MB

     Dynamical RAM for          h,s,v(r/c):       0.15 MB

     Dynamical RAM for          <psi|beta>:       0.01 MB

     Dynamical RAM for                 psi:       2.20 MB

     Dynamical RAM for                hpsi:       2.20 MB

     Dynamical RAM for      wfcinit/wfcrot:       4.55 MB

     Estimated static dynamical RAM per process >       9.87 MB

     Estimated max dynamical RAM per process >      14.42 MB

     The potential is recalculated from file :
     ./CH4_3dist.save/charge-density

     Starting wfcs are   80 randomized atomic wfcs

     Band Structure Calculation
     Davidson diagonalization with overlap

     Computing kpt #:     1  of     1
     total cpu time spent up to now is        1.1 secs

     ethr =  1.00E-06,  avg # of iterations = 14.0

     total cpu time spent up to now is        1.1 secs

     End of band structure calculation

          k = 0.0000 0.0000 0.0000 (  1848 PWs)   bands (ev):

   -14.8617  -8.0166  -7.3897  -6.8407  -0.7701   3.1986   3.7752   3.7808
     4.2039   5.1352   6.1666   6.3465   6.3933   6.9739   9.6957   9.8393
     9.9628  10.2236  10.2283  10.6860

     occupation numbers 
     1.0000   1.0000   1.0000   1.0000  -0.0000  -0.0000  -0.0000  -0.0000
    -0.0000  -0.0000  -0.0000  -0.0000  -0.0000  -0.0000  -0.0000  -0.0000
    -0.0000  -0.0000  -0.0000  -0.0000

     the Fermi energy is    -2.0878 ev

     Writing output data file ./CH4_3dist.save/

     init_run     :      0.12s CPU      0.13s WALL (       1 calls)
     electrons    :      0.73s CPU      0.74s WALL (       1 calls)

     Called by init_run:
     wfcinit      :      0.00s CPU      0.00s WALL (       1 calls)
     wfcinit:atom :      0.00s CPU      0.00s WALL (       1 calls)
     wfcinit:wfcr :      0.24s CPU      0.24s WALL (       1 calls)
     potinit      :      0.04s CPU      0.04s WALL (       1 calls)
     hinit0       :      0.07s CPU      0.08s WALL (       1 calls)

     Called by electrons:
     c_bands      :      0.73s CPU      0.74s WALL (       1 calls)
     v_of_rho     :      0.04s CPU      0.04s WALL (       1 calls)
     v_h          :      0.00s CPU      0.00s WALL (       1 calls)
     v_xc         :      0.04s CPU      0.04s WALL (       1 calls)

     Called by c_bands:
     init_us_2    :      0.00s CPU      0.00s WALL (       1 calls)
     regterg      :      0.48s CPU      0.48s WALL (       1 calls)

     Called by sum_band:

     Called by *egterg:
     h_psi        :      0.41s CPU      0.42s WALL (      16 calls)
     g_psi        :      0.00s CPU      0.00s WALL (      14 calls)
     rdiaghg      :      0.02s CPU      0.02s WALL (      15 calls)
     regterg:over :      0.11s CPU      0.11s WALL (      14 calls)
     regterg:upda :      0.04s CPU      0.04s WALL (      14 calls)
     regterg:last :      0.03s CPU      0.03s WALL (       3 calls)

     Called by h_psi:
     h_psi:calbec :      0.09s CPU      0.09s WALL (      16 calls)
     vloc_psi     :      0.27s CPU      0.27s WALL (      16 calls)
     add_vuspsi   :      0.05s CPU      0.05s WALL (      16 calls)

     General routines
     calbec       :      0.09s CPU      0.09s WALL (      16 calls)
     fft          :      0.01s CPU      0.01s WALL (       8 calls)
     fftw         :      0.24s CPU      0.24s WALL (     246 calls)
     davcio       :      0.00s CPU      0.00s WALL (       2 calls)

     Parallel routines

     PWSCF        :      1.09s CPU      1.14s WALL


   This run was terminated on:  16:38:23   6Oct2020            

=------------------------------------------------------------------------------=
   JOB DONE.
=------------------------------------------------------------------------------=
