
     Program PWSCF v.6.5 starts on  3Mar2021 at 16:32:15 

     This program is part of the open-source Quantum ESPRESSO suite
     for quantum simulation of materials; please cite
         "P. Giannozzi et al., J. Phys.:Condens. Matter 21 395502 (2009);
         "P. Giannozzi et al., J. Phys.:Condens. Matter 29 465901 (2017);
          URL http://www.quantum-espresso.org", 
     in publications or presentations arising from this work. More details at
     http://www.quantum-espresso.org/quote

     Parallel version (MPI), running on     1 processors

     MPI processes distributed on     1 nodes
     Waiting for input...
     Reading input from standard input

     Current dimensions of program PWSCF are:
     Max number of different atomic species (ntypx) = 10
     Max number of k-points (npk) =  40000
     Max angular momentum in pseudopotentials (lmaxx) =  3
               file H.pbe-mt_fhi.UPF: wavefunction(s)  2p 4f renormalized
               file C.pbe-mt_fhi.UPF: wavefunction(s)  4f renormalized

     gamma-point specific algorithms are used

     Subspace diagonalization in iterative solution of the eigenvalue problem:
     a serial algorithm will be used


     G-vector sticks info
     --------------------
     sticks:   dense  smooth     PW     G-vecs:    dense   smooth      PW
     Sum         979     979    253                20395    20395    2637


     Title: 
     CH4_3dist                                                                  


     bravais-lattice index     =            2
     lattice parameter (alat)  =      13.3669  a.u.
     unit-cell volume          =     597.0738 (a.u.)^3
     number of atoms/cell      =            5
     number of atomic types    =            2
     number of electrons       =         8.00
     number of Kohn-Sham states=           10
     kinetic-energy cutoff     =      40.0000  Ry
     charge density cutoff     =     160.0000  Ry
     convergence threshold     =      1.0E-06
     mixing beta               =       0.7000
     number of iterations used =            8  plain     mixing
     Exchange-correlation= PBE
                           (   1   4   3   4   0   0   0)

     celldm(1)=  13.366858  celldm(2)=   0.000000  celldm(3)=   0.000000
     celldm(4)=   0.000000  celldm(5)=   0.000000  celldm(6)=   0.000000

     crystal axes: (cart. coord. in units of alat)
               a(1) = (  -0.500000   0.000000   0.500000 )  
               a(2) = (   0.000000   0.500000   0.500000 )  
               a(3) = (  -0.500000   0.500000   0.000000 )  

     reciprocal axes: (cart. coord. in units 2 pi/alat)
               b(1) = ( -1.000000 -1.000000  1.000000 )  
               b(2) = (  1.000000  1.000000  1.000000 )  
               b(3) = ( -1.000000  1.000000 -1.000000 )  


     PseudoPot. # 1 for H  read from file:
     ../../psp/H.pbe-mt_fhi.UPF
     MD5 check sum: a19bd5488733b3d98581df861506e80d
     Pseudo is Norm-conserving, Zval =  1.0
     Generated using FHI98PP, converted with fhi2upf.x v.5.0.2
     Using radial grid of  387 points,  3 beta functions with: 
                l(1) =   0
                l(2) =   1
                l(3) =   3

     PseudoPot. # 2 for C  read from file:
     ../../psp/C.pbe-mt_fhi.UPF
     MD5 check sum: 058ca341f9d6d5327d9962fd88a91b65
     Pseudo is Norm-conserving, Zval =  4.0
     Generated using FHI98PP, converted with fhi2upf.x v.5.0.2
     Using radial grid of  461 points,  3 beta functions with: 
                l(1) =   0
                l(2) =   1
                l(3) =   3

     atomic species   valence    mass     pseudopotential
        H              1.00     1.00794     H ( 1.00)
        C              4.00    12.01070     C ( 1.00)

     No symmetry found



   Cartesian axes

     site n.     atom                  positions (alat units)
         1           C   tau(   1) = (   0.0000000   0.0000000   0.0000000  )
         2           H   tau(   2) = (   0.1049702   0.1049702   0.1049702  )
         3           H   tau(   3) = (  -0.0858847  -0.0858847   0.0858847  )
         4           H   tau(   4) = (   0.1145129  -0.1145129  -0.1145129  )
         5           H   tau(   5) = (  -0.0954274   0.0954274  -0.0954274  )

     number of k points=     1  Methfessel-Paxton smearing, width (Ry)=  0.0007
                       cart. coord. in units 2pi/alat
        k(    1) = (   0.0000000   0.0000000   0.0000000), wk =   2.0000000

     Dense  grid:    10198 G-vectors     FFT dimensions: (  40,  40,  40)

     Estimated max dynamical RAM per process >      15.20 MB

     Initial potential from superposition of free atoms

     starting charge    7.99992, renormalised to    8.00000
     Starting wfcs are   80 randomized atomic wfcs

     total cpu time spent up to now is        0.8 secs

     Self-consistent Calculation

     iteration #  1     ecut=    40.00 Ry     beta= 0.70
     Davidson diagonalization with overlap
     ethr =  1.00E-02,  avg # of iterations =  2.0

     total cpu time spent up to now is        0.9 secs

     total energy              =     -15.80025248 Ry
     Harris-Foulkes estimate   =     -16.17185982 Ry
     estimated scf accuracy    <       0.55444794 Ry

     iteration #  2     ecut=    40.00 Ry     beta= 0.70
     Davidson diagonalization with overlap
     ethr =  6.93E-03,  avg # of iterations =  2.0

     total cpu time spent up to now is        1.0 secs

     total energy              =     -15.90771773 Ry
     Harris-Foulkes estimate   =     -16.08288671 Ry
     estimated scf accuracy    <       0.36789703 Ry

     iteration #  3     ecut=    40.00 Ry     beta= 0.70
     Davidson diagonalization with overlap
     ethr =  4.60E-03,  avg # of iterations =  2.0

     total cpu time spent up to now is        1.1 secs

     total energy              =     -15.97730527 Ry
     Harris-Foulkes estimate   =     -15.98001986 Ry
     estimated scf accuracy    <       0.00537875 Ry

     iteration #  4     ecut=    40.00 Ry     beta= 0.70
     Davidson diagonalization with overlap
     ethr =  6.72E-05,  avg # of iterations =  6.0

     total cpu time spent up to now is        1.2 secs

     total energy              =     -15.97813362 Ry
     Harris-Foulkes estimate   =     -15.97814996 Ry
     estimated scf accuracy    <       0.00005376 Ry

     iteration #  5     ecut=    40.00 Ry     beta= 0.70
     Davidson diagonalization with overlap
     ethr =  6.72E-07,  avg # of iterations =  4.0

     total cpu time spent up to now is        1.3 secs

     total energy              =     -15.97814641 Ry
     Harris-Foulkes estimate   =     -15.97814770 Ry
     estimated scf accuracy    <       0.00000524 Ry

     iteration #  6     ecut=    40.00 Ry     beta= 0.70
     Davidson diagonalization with overlap
     ethr =  6.55E-08,  avg # of iterations =  2.0

     total cpu time spent up to now is        1.4 secs

     End of self-consistent calculation

          k = 0.0000 0.0000 0.0000 (  1319 PWs)   bands (ev):

   -14.1483  -7.2126  -6.5568  -5.9525  -0.4258   3.3640   4.0568   4.6916
     6.2185   8.2308

     the Fermi energy is    -2.9587 ev

!    total energy              =     -15.97814708 Ry
     Harris-Foulkes estimate   =     -15.97814717 Ry
     estimated scf accuracy    <       0.00000012 Ry

     The total energy is the sum of the following terms:

     one-electron contribution =     -15.52498017 Ry
     hartree contribution      =       9.23996286 Ry
     xc contribution           =      -6.12994217 Ry
     ewald contribution        =      -3.56318760 Ry
     smearing contrib. (-TS)   =       0.00000000 Ry

     convergence has been achieved in   6 iterations

     Forces acting on atoms (cartesian axes, Ry/au):

     atom    1 type  2   force =     0.14599433    0.06566669   -0.08295214
     atom    2 type  1   force =    -0.09607442   -0.10021341   -0.10248462
     atom    3 type  1   force =    -0.00734835   -0.01769855    0.01281336
     atom    4 type  1   force =    -0.11234473    0.11464168    0.11347227
     atom    5 type  1   force =     0.06977317   -0.06239642    0.05915112

     Total force =     0.337217     Total SCF correction =     0.000203

     Writing output data file ./CH4_3dist.save/

     init_run     :      0.30s CPU      0.35s WALL (       1 calls)
     electrons    :      0.58s CPU      0.64s WALL (       1 calls)
     forces       :      0.03s CPU      0.03s WALL (       1 calls)

     Called by init_run:
     wfcinit      :      0.19s CPU      0.20s WALL (       1 calls)
     potinit      :      0.03s CPU      0.05s WALL (       1 calls)
     hinit0       :      0.07s CPU      0.08s WALL (       1 calls)

     Called by electrons:
     c_bands      :      0.30s CPU      0.30s WALL (       6 calls)
     sum_band     :      0.06s CPU      0.06s WALL (       6 calls)
     v_of_rho     :      0.24s CPU      0.26s WALL (       7 calls)
     mix_rho      :      0.01s CPU      0.01s WALL (       6 calls)

     Called by c_bands:
     init_us_2    :      0.01s CPU      0.01s WALL (      13 calls)
     regterg      :      0.28s CPU      0.29s WALL (       6 calls)

     Called by sum_band:

     Called by *egterg:
     h_psi        :      0.35s CPU      0.35s WALL (      25 calls)
     g_psi        :      0.00s CPU      0.00s WALL (      18 calls)
     rdiaghg      :      0.01s CPU      0.02s WALL (      24 calls)

     Called by h_psi:
     h_psi:calbec :      0.06s CPU      0.06s WALL (      25 calls)
     vloc_psi     :      0.25s CPU      0.25s WALL (      25 calls)
     add_vuspsi   :      0.03s CPU      0.03s WALL (      25 calls)

     General routines
     calbec       :      0.07s CPU      0.07s WALL (      29 calls)
     fft          :      0.09s CPU      0.09s WALL (      57 calls)
     ffts         :      0.01s CPU      0.01s WALL (       6 calls)
     fftw         :      0.25s CPU      0.25s WALL (     280 calls)

     Parallel routines

     PWSCF        :      1.05s CPU      1.47s WALL


   This run was terminated on:  16:32:17   3Mar2021            

=------------------------------------------------------------------------------=
   JOB DONE.
=------------------------------------------------------------------------------=
