
     Program PWSCF v.5.0.1 (svn rev. 9278) starts on  1Apr2013 at 18:47:48 

     This program is part of the open-source Quantum ESPRESSO suite
     for quantum simulation of materials; please cite
         "P. Giannozzi et al., J. Phys.:Condens. Matter 21 395502 (2009);
          URL http://www.quantum-espresso.org", 
     in publications or presentations arising from this work. More details at
     http://www.quantum-espresso.org/quote.php

     Parallel version (MPI & OpenMP), running on    1024 processor cores
     Number of MPI processes:                64
     Threads/MPI process:                    16
     R & G space division:  proc/pool =      64
     wavefunctions fft division:  fft/group =       4

     Current dimensions of program PWSCF are:
     Max number of different atomic species (ntypx) = 10
     Max number of k-points (npk) =  40000
     Max angular momentum in pseudopotentials (lmaxx) =  3
     Reading input from si100_c4x2_12L-nscf.in

     Atomic positions and unit cell read from directory:
     ./si100-c4x2-out.save/
 

     Subspace diagonalization in iterative solution of the eigenvalue problem:
     scalapack distributed-memory algorithm (size of sub-group:  5*  5 procs)


   Task Groups are in USE
   groups and procs/group :     4   16
 
     Parallelization info
     --------------------
     sticks:   dense  smooth     PW     G-vecs:    dense   smooth      PW
     Min          13      13      3                 1143     1143     157
     Max          14      14      4                 1166     1166     182
     Sum         865     865    237                73829    73829   11005
 


     bravais-lattice index     =            0
     lattice parameter (alat)  =      10.1910  a.u.
     unit-cell volume          =   11642.4154 (a.u.)^3
     number of atoms/cell      =           48
     number of atomic types    =            1
     number of electrons       =       192.00
     number of Kohn-Sham states=          200
     kinetic-energy cutoff     =      13.0000  Ry
     charge density cutoff     =      52.0000  Ry
     Exchange-correlation      =  SLA  PZ   NOGX NOGC ( 1 1 0 0 0)
     EXX-fraction              =        0.00

     celldm(1)=  10.191000  celldm(2)=   0.000000  celldm(3)=   0.000000
     celldm(4)=   0.000000  celldm(5)=   0.000000  celldm(6)=   0.000000

     crystal axes: (cart. coord. in units of alat)
               a(1) = (   1.414214  -0.707107   0.000000 )  
               a(2) = (   1.414214   0.707107   0.000000 )  
               a(3) = (   0.000000   0.000000   5.500000 )  

     reciprocal axes: (cart. coord. in units 2 pi/alat)
               b(1) = (  0.353553 -0.707107  0.000000 )  
               b(2) = (  0.353553  0.707107  0.000000 )  
               b(3) = (  0.000000  0.000000  0.181818 )  


     PseudoPot. # 1 for Si read from file:
     Si.pz-vbc.UPF
     MD5 check sum: dc3b11d017da532b29132e08c0a6883c
     Pseudo is Norm-conserving, Zval =  4.0
     Generated by new atomic code, or converted to UPF format
     Using radial grid of  431 points,  2 beta functions with: 
                l(1) =   0
                l(2) =   1

     atomic species   valence    mass     pseudopotential
        Si             4.00    28.08600     Si( 1.00)

      2 Sym. Ops., with inversion, found


                                    s                        frac. trans.

      isym =  1     identity                                     

 cryst.   s( 1) = (     1          0          0      )
                  (     0          1          0      )
                  (     0          0          1      )

 cart.    s( 1) = (  1.0000000  0.0000000  0.0000000 )
                  (  0.0000000  1.0000000  0.0000000 )
                  (  0.0000000  0.0000000  1.0000000 )


      isym =  2     inversion                                    

 cryst.   s( 2) = (    -1          0          0      )
                  (     0         -1          0      )
                  (     0          0         -1      )

 cart.    s( 2) = ( -1.0000000  0.0000000  0.0000000 )
                  (  0.0000000 -1.0000000  0.0000000 )
                  (  0.0000000  0.0000000 -1.0000000 )


     point group C_i (-1)   
     there are  2 classes
     the character table:

       E     i    
A_g    1.00  1.00
A_u    1.00 -1.00

     the symmetry operations in each class:
     E        1
     i        2

   Cartesian axes

     site n.     atom                  positions (alat units)
         1           Si  tau(   1) = (   0.0584838  -0.3535505   1.4007466  )
         2           Si  tau(   2) = (  -0.4122533   0.3535598   1.4002178  )
         3           Si  tau(   3) = (  -0.0045499   0.3535555   1.2642638  )
         4           Si  tau(   4) = (  -0.3487374  -0.3535484   1.2638190  )
         5           Si  tau(   5) = (   0.1594703  -0.0219660   1.1339056  )
         6           Si  tau(   6) = (   0.1594704   0.7290779   1.1339062  )
         7           Si  tau(   7) = (  -0.5127173   0.0219868   1.1331361  )
         8           Si  tau(   8) = (  -0.5127149   0.6851299   1.1331304  )
         9           Si  tau(   9) = (  -0.1762649   0.0000055   0.8545924  )
        10           Si  tau(  10) = (  -0.1762616   0.7070963   0.8545901  )
        11           Si  tau(  11) = (   0.5302211  -0.0025407   0.8990340  )
        12           Si  tau(  12) = (   0.5302217   0.7096466   0.8990359  )
        13           Si  tau(  13) = (  -0.1781350   0.3535502   0.6126304  )
        14           Si  tau(  14) = (  -0.1755817  -0.3535550   0.6128300  )
        15           Si  tau(  15) = (   0.5305291   0.3535536   0.6409126  )
        16           Si  tau(  16) = (   0.5304677  -0.3535547   0.6364565  )
        17           Si  tau(  17) = (   0.1767767   0.3535534   0.3750000  )
        18           Si  tau(  18) = (   0.1767767  -0.3535534   0.3750000  )
        19           Si  tau(  19) = (  -0.5303301   0.3535534   0.3750000  )
        20           Si  tau(  20) = (  -0.5303301  -0.3535534   0.3750000  )
        21           Si  tau(  21) = (   0.1767767   0.0000000   0.1250000  )
        22           Si  tau(  22) = (   0.1767767   0.7071068   0.1250000  )
        23           Si  tau(  23) = (  -0.5303301   0.0000000   0.1250000  )
        24           Si  tau(  24) = (  -0.5303301   0.7071068   0.1250000  )
        25           Si  tau(  25) = (  -0.1767767   0.0000000  -0.1250000  )
        26           Si  tau(  26) = (  -0.1767767  -0.7071068  -0.1250000  )
        27           Si  tau(  27) = (   0.5303301   0.0000000  -0.1250000  )
        28           Si  tau(  28) = (   0.5303301  -0.7071068  -0.1250000  )
        29           Si  tau(  29) = (  -0.1767767   0.3535534  -0.3750000  )
        30           Si  tau(  30) = (  -0.1767767  -0.3535534  -0.3750000  )
        31           Si  tau(  31) = (   0.5303301   0.3535534  -0.3750000  )
        32           Si  tau(  32) = (   0.5303301  -0.3535534  -0.3750000  )
        33           Si  tau(  33) = (   0.1755817   0.3535550  -0.6128300  )
        34           Si  tau(  34) = (   0.1781350  -0.3535502  -0.6126304  )
        35           Si  tau(  35) = (  -0.5304677   0.3535547  -0.6364565  )
        36           Si  tau(  36) = (  -0.5305291  -0.3535536  -0.6409126  )
        37           Si  tau(  37) = (   0.1762649  -0.0000055  -0.8545924  )
        38           Si  tau(  38) = (   0.1762616  -0.7070963  -0.8545901  )
        39           Si  tau(  39) = (  -0.5302211   0.0025407  -0.8990340  )
        40           Si  tau(  40) = (  -0.5302217  -0.7096466  -0.8990359  )
        41           Si  tau(  41) = (  -0.1594703   0.0219660  -1.1339056  )
        42           Si  tau(  42) = (  -0.1594704  -0.7290779  -1.1339062  )
        43           Si  tau(  43) = (   0.5127173  -0.0219868  -1.1331361  )
        44           Si  tau(  44) = (   0.5127149  -0.6851299  -1.1331304  )
        45           Si  tau(  45) = (   0.0045499  -0.3535555  -1.2642638  )
        46           Si  tau(  46) = (   0.3487374   0.3535484  -1.2638190  )
        47           Si  tau(  47) = (  -0.0584838   0.3535505  -1.4007466  )
        48           Si  tau(  48) = (   0.4122533  -0.3535598  -1.4002178  )

   Crystallographic axes

     site n.     atom                  positions (cryst. coord.)
         1           Si  tau(   1) = (  0.2706751 -0.2293208  0.2546812  )
         2           Si  tau(   2) = ( -0.3957581  0.1042510  0.2545851  )
         3           Si  tau(   3) = ( -0.2516101  0.2483929  0.2298661  )
         4           Si  tau(   4) = (  0.1266992 -0.3732938  0.2297853  )
         5           Si  tau(   5) = (  0.0719136  0.0408490  0.2061647  )
         6           Si  tau(   6) = ( -0.4591546  0.5719172  0.2061648  )
         7           Si  tau(   7) = ( -0.1968199 -0.1657259  0.2060247  )
         8           Si  tau(   8) = ( -0.6657321  0.3031879  0.2060237  )
         9           Si  tau(   9) = ( -0.0623229 -0.0623152  0.1553804  )
        10           Si  tau(  10) = ( -0.5623105  0.4376747  0.1553800  )
        11           Si  tau(  11) = (  0.1892580  0.1856649  0.1634607  )
        12           Si  tau(  12) = ( -0.3143343  0.6892576  0.1634611  )
        13           Si  tau(  13) = ( -0.3129780  0.1870175  0.1113873  )
        14           Si  tau(  14) = (  0.1879236 -0.3120786  0.1114236  )
        15           Si  tau(  15) = ( -0.0624298  0.4375705  0.1165296  )
        16           Si  tau(  16) = (  0.4375496 -0.0624523  0.1157194  )
        17           Si  tau(  17) = ( -0.1875000  0.3125000  0.0681818  )
        18           Si  tau(  18) = (  0.3125000 -0.1875000  0.0681818  )
        19           Si  tau(  19) = ( -0.4375000  0.0625000  0.0681818  )
        20           Si  tau(  20) = (  0.0625000 -0.4375000  0.0681818  )
        21           Si  tau(  21) = (  0.0625000  0.0625000  0.0227273  )
        22           Si  tau(  22) = ( -0.4375000  0.5625000  0.0227273  )
        23           Si  tau(  23) = ( -0.1875000 -0.1875000  0.0227273  )
        24           Si  tau(  24) = ( -0.6875000  0.3125000  0.0227273  )
        25           Si  tau(  25) = ( -0.0625000 -0.0625000 -0.0227273  )
        26           Si  tau(  26) = (  0.4375000 -0.5625000 -0.0227273  )
        27           Si  tau(  27) = (  0.1875000  0.1875000 -0.0227273  )
        28           Si  tau(  28) = (  0.6875000 -0.3125000 -0.0227273  )
        29           Si  tau(  29) = ( -0.3125000  0.1875000 -0.0681818  )
        30           Si  tau(  30) = (  0.1875000 -0.3125000 -0.0681818  )
        31           Si  tau(  31) = ( -0.0625000  0.4375000 -0.0681818  )
        32           Si  tau(  32) = (  0.4375000 -0.0625000 -0.0681818  )
        33           Si  tau(  33) = ( -0.1879236  0.3120786 -0.1114236  )
        34           Si  tau(  34) = (  0.3129780 -0.1870175 -0.1113873  )
        35           Si  tau(  35) = ( -0.4375496  0.0624523 -0.1157194  )
        36           Si  tau(  36) = (  0.0624298 -0.4375705 -0.1165296  )
        37           Si  tau(  37) = (  0.0623229  0.0623152 -0.1553804  )
        38           Si  tau(  38) = (  0.5623105 -0.4376747 -0.1553800  )
        39           Si  tau(  39) = ( -0.1892580 -0.1856649 -0.1634607  )
        40           Si  tau(  40) = (  0.3143343 -0.6892576 -0.1634611  )
        41           Si  tau(  41) = ( -0.0719136 -0.0408490 -0.2061647  )
        42           Si  tau(  42) = (  0.4591546 -0.5719172 -0.2061648  )
        43           Si  tau(  43) = (  0.1968199  0.1657259 -0.2060247  )
        44           Si  tau(  44) = (  0.6657321 -0.3031879 -0.2060237  )
        45           Si  tau(  45) = (  0.2516101 -0.2483929 -0.2298661  )
        46           Si  tau(  46) = ( -0.1266992  0.3732938 -0.2297853  )
        47           Si  tau(  47) = ( -0.2706751  0.2293208 -0.2546812  )
        48           Si  tau(  48) = (  0.3957581 -0.1042510 -0.2545851  )

     number of k points=     2
                       cart. coord. in units 2pi/alat
        k(    1) = (   0.1767767   0.0000000   0.0000000), wk =   1.0000000
        k(    2) = (   0.0000000  -0.3535534   0.0000000), wk =   1.0000000

                       cryst. coord.
        k(    1) = (   0.2500000   0.2500000   0.0000000), wk =   1.0000000
        k(    2) = (   0.2500000  -0.2500000   0.0000000), wk =   1.0000000

     Dense  grid:    73829 G-vectors     FFT dimensions: (  40,  40, 135)

     Largest allocated arrays     est. size (Mb)     dimensions
        Kohn-Sham Wavefunctions         0.44 Mb     (    145,  200)
        NL pseudopotentials             0.42 Mb     (    145,  192)
        Each V/rho on FFT grid          0.07 Mb     (   4800)
        Each G-vector array             0.01 Mb     (   1151)
        G-vector shells                 0.00 Mb     (    578)
     Largest temporary arrays     est. size (Mb)     dimensions
        Auxiliary wavefunctions         1.77 Mb     (    145,  800)
        Each subspace H/S matrix        0.39 Mb     ( 160, 160)
        Each <psi_i|beta_j> matrix      0.59 Mb     (    192,  200)
     writing wfc files to a dedicated directory

     The potential is recalculated from file :
     ./si100-c4x2-out.save/charge-density.dat

     Starting wfc are  192 randomized atomic wfcs

     total cpu time spent up to now is        1.6 secs

     per-process dynamical memory:    23.5 Mb

     Band Structure Calculation
     Davidson diagonalization with overlap

     Computing kpt #:     1
     total cpu time spent up to now is       15.5 secs

     Computing kpt #:     2
     total cpu time spent up to now is       29.1 secs

     ethr =  5.00E-06,  avg # of iterations = 15.5

     total cpu time spent up to now is       29.1 secs

     End of band structure calculation

          k = 0.1768 0.0000 0.0000     band energies (ev):

   -10.7097 -10.5625 -10.1142  -9.5416  -9.4205  -9.1669  -8.8097  -8.6686
    -8.6211  -8.5880  -8.4527  -8.4203  -8.4169  -8.1101  -7.7542  -7.7001
    -7.6696  -7.6443  -7.4870  -7.4100  -7.3912  -7.2974  -7.2802  -7.2248
    -6.0476  -5.7488  -5.7224  -5.6766  -5.6392  -5.5692  -5.5652  -5.5610
    -5.5609  -5.4740  -5.2649  -5.1671  -5.0731  -4.8973  -4.7115  -4.5906
    -4.5860  -4.2480  -4.0221  -3.5525  -3.0907  -3.0033  -2.8738  -2.7261
    -2.6666  -2.4822  -2.4497  -2.3126  -2.2334  -2.2083  -2.0317  -2.0315
    -1.9220  -1.8774  -1.8563  -1.8191  -1.7661  -1.7182  -1.6441  -1.6159
    -1.5190  -1.4357  -1.3471  -1.2721  -1.2151  -1.1215  -0.9529  -0.9004
    -0.8762  -0.7792  -0.7394  -0.7216  -0.6729  -0.6635  -0.6120  -0.4990
    -0.4744  -0.4730  -0.3434  -0.1161  -0.0960   0.1539   0.1673   0.2069
     0.3122   0.3574   0.3683   0.5482   0.6094   0.7620   0.8028   0.9386
     1.1520   1.2355   1.9630   2.0321   2.1614   2.1930   2.4832   2.5581
     2.6072   2.8915   2.9081   2.9918   3.0489   3.1186   3.1690   3.2219
     3.3605   3.3944   3.4848   3.4871   3.5156   3.5898   3.5913   3.6910
     3.8131   3.8433   3.8951   4.0129   4.0614   4.0788   4.1477   4.2706
     4.2780   4.3494   4.3499   4.5025   4.6452   4.6505   4.7067   4.7156
     4.7607   4.7915   4.8276   4.8394   4.8724   4.9764   5.0055   5.0653
     5.0906   5.1842   5.1934   5.1991   5.3278   5.4282   5.4622   5.6025
     5.6459   5.8013   5.8555   5.9215   5.9339   5.9913   6.0343   6.0754
     6.1796   6.2812   6.3623   6.3847   6.5695   6.6041   6.6064   6.7075
     6.8505   6.9057   6.9302   6.9836   7.0350   7.1031   7.3356   7.4341
     7.4650   7.5206   7.5983   7.6872   7.7618   7.8170   7.8406   7.8807
     7.9003   8.0290   8.0962   8.1502   8.1904   8.2188   8.3075   8.3299
     8.3893   8.4438   8.5054   8.6375   8.6920   8.7309   8.7439   8.7757

     occupation numbers 
     1.0000   1.0000   1.0000   1.0000   1.0000   1.0000   1.0000   1.0000
     1.0000   1.0000   1.0000   1.0000   1.0000   1.0000   1.0000   1.0000
     1.0000   1.0000   1.0000   1.0000   1.0000   1.0000   1.0000   1.0000
     1.0000   1.0000   1.0000   1.0000   1.0000   1.0000   1.0000   1.0000
     1.0000   1.0000   1.0000   1.0000   1.0000   1.0000   1.0000   1.0000
     1.0000   1.0000   1.0000   1.0000   1.0000   1.0000   1.0000   1.0000
     1.0000   1.0000   1.0000   1.0000   1.0000   1.0000   1.0000   1.0000
     1.0000   1.0000   1.0000   1.0000   1.0000   1.0000   1.0000   1.0000
     1.0000   1.0000   1.0000   1.0000   1.0000   1.0000   1.0000   1.0000
     1.0000   1.0000   1.0000   1.0000   1.0000   1.0000   1.0000   1.0000
     1.0000   1.0000   1.0000   1.0000   1.0000   1.0000   1.0000   1.0000
     1.0000   1.0000   1.0000   1.0000   1.0000   1.0000   1.0000   1.0000
     0.0000   0.0000   0.0000   0.0000   0.0000   0.0000   0.0000   0.0000
     0.0000   0.0000   0.0000   0.0000   0.0000   0.0000   0.0000   0.0000
     0.0000   0.0000   0.0000   0.0000   0.0000   0.0000   0.0000   0.0000
     0.0000   0.0000   0.0000   0.0000   0.0000   0.0000   0.0000   0.0000
     0.0000   0.0000   0.0000   0.0000   0.0000   0.0000   0.0000   0.0000
     0.0000   0.0000   0.0000   0.0000   0.0000   0.0000   0.0000   0.0000
     0.0000   0.0000   0.0000   0.0000   0.0000   0.0000   0.0000   0.0000
     0.0000   0.0000   0.0000   0.0000   0.0000   0.0000   0.0000   0.0000
     0.0000   0.0000   0.0000   0.0000   0.0000   0.0000   0.0000   0.0000
     0.0000   0.0000   0.0000   0.0000   0.0000   0.0000   0.0000   0.0000
     0.0000   0.0000   0.0000   0.0000   0.0000   0.0000   0.0000   0.0000
     0.0000   0.0000   0.0000   0.0000   0.0000   0.0000   0.0000   0.0000
     0.0000   0.0000   0.0000   0.0000   0.0000   0.0000   0.0000   0.0000

          k = 0.0000-0.3536 0.0000     band energies (ev):

   -10.2801 -10.1074  -9.9241  -9.8635  -9.6636  -9.5183  -9.3844  -9.1037
    -8.9715  -8.8296  -8.4915  -8.2238  -8.1620  -8.0935  -8.0829  -8.0126
    -7.9306  -7.6271  -7.5009  -7.4845  -7.2595  -6.9858  -6.7652  -6.5934
    -6.5453  -6.1288  -5.8774  -5.5403  -5.4957  -5.4415  -5.4222  -5.1690
    -5.0195  -5.0184  -4.7959  -4.7827  -4.4408  -4.0623  -3.9614  -3.7483
    -3.7333  -3.6354  -3.3091  -3.2751  -3.2191  -3.0767  -3.0303  -2.9901
    -2.9735  -2.8559  -2.8146  -2.8000  -2.7629  -2.5442  -2.4775  -2.4103
    -2.3914  -2.3807  -2.3771  -2.2261  -2.1670  -2.1276  -2.0605  -1.9585
    -1.9137  -1.8909  -1.7631  -1.5393  -1.5163  -1.3562  -1.2788  -1.1801
    -1.1607  -1.0763  -1.0416  -0.9347  -0.9244  -0.7414  -0.7381  -0.7302
    -0.6833  -0.5604  -0.5524  -0.4200  -0.3638  -0.3619  -0.2009  -0.0868
    -0.0562   0.0780   0.1665   0.6356   0.7554   0.7903   0.8332   0.8338
     1.9215   1.9857   2.0550   2.0806   2.5104   2.5471   2.6707   2.8466
     2.9346   2.9512   3.0939   3.2352   3.2723   3.3763   3.4041   3.4418
     3.6463   3.8188   3.8783   3.9537   3.9710   4.0083   4.0791   4.2500
     4.3032   4.3219   4.3394   4.3565   4.5109   4.5160   4.5840   4.6137
     4.6628   4.7022   4.7981   4.8698   4.9679   5.1103   5.2003   5.2163
     5.2468   5.3289   5.4137   5.4472   5.4780   5.5232   5.5650   5.6672
     5.6702   5.7433   5.7475   5.8292   5.8754   5.9235   5.9300   5.9504
     6.0727   6.0884   6.1271   6.1551   6.2392   6.2454   6.2829   6.3739
     6.4295   6.4760   6.5185   6.5413   6.5906   6.5949   6.6993   6.7131
     6.7136   6.8113   6.8620   6.8800   6.9343   6.9596   6.9947   7.0003
     7.0623   7.0639   7.0651   7.1561   7.1575   7.1900   7.1989   7.2618
     7.2750   7.3229   7.4020   7.4281   7.4629   7.5192   7.5840   7.5924
     7.6819   7.7404   7.8255   7.8496   7.9173   7.9994   8.0277   8.0789

     occupation numbers 
     1.0000   1.0000   1.0000   1.0000   1.0000   1.0000   1.0000   1.0000
     1.0000   1.0000   1.0000   1.0000   1.0000   1.0000   1.0000   1.0000
     1.0000   1.0000   1.0000   1.0000   1.0000   1.0000   1.0000   1.0000
     1.0000   1.0000   1.0000   1.0000   1.0000   1.0000   1.0000   1.0000
     1.0000   1.0000   1.0000   1.0000   1.0000   1.0000   1.0000   1.0000
     1.0000   1.0000   1.0000   1.0000   1.0000   1.0000   1.0000   1.0000
     1.0000   1.0000   1.0000   1.0000   1.0000   1.0000   1.0000   1.0000
     1.0000   1.0000   1.0000   1.0000   1.0000   1.0000   1.0000   1.0000
     1.0000   1.0000   1.0000   1.0000   1.0000   1.0000   1.0000   1.0000
     1.0000   1.0000   1.0000   1.0000   1.0000   1.0000   1.0000   1.0000
     1.0000   1.0000   1.0000   1.0000   1.0000   1.0000   1.0000   1.0000
     1.0000   1.0000   1.0000   1.0000   1.0000   1.0000   1.0000   1.0000
     0.0000   0.0000   0.0000   0.0000   0.0000   0.0000   0.0000   0.0000
     0.0000   0.0000   0.0000   0.0000   0.0000   0.0000   0.0000   0.0000
     0.0000   0.0000   0.0000   0.0000   0.0000   0.0000   0.0000   0.0000
     0.0000   0.0000   0.0000   0.0000   0.0000   0.0000   0.0000   0.0000
     0.0000   0.0000   0.0000   0.0000   0.0000   0.0000   0.0000   0.0000
     0.0000   0.0000   0.0000   0.0000   0.0000   0.0000   0.0000   0.0000
     0.0000   0.0000   0.0000   0.0000   0.0000   0.0000   0.0000   0.0000
     0.0000   0.0000   0.0000   0.0000   0.0000   0.0000   0.0000   0.0000
     0.0000   0.0000   0.0000   0.0000   0.0000   0.0000   0.0000   0.0000
     0.0000   0.0000   0.0000   0.0000   0.0000   0.0000   0.0000   0.0000
     0.0000   0.0000   0.0000   0.0000   0.0000   0.0000   0.0000   0.0000
     0.0000   0.0000   0.0000   0.0000   0.0000   0.0000   0.0000   0.0000
     0.0000   0.0000   0.0000   0.0000   0.0000   0.0000   0.0000   0.0000

     highest occupied, lowest unoccupied level (ev):     0.9386    1.1520

     Writing output data file si100-c4x2-out.save
 
     init_run     :      0.96s CPU      0.96s WALL (       1 calls)
     electrons    :     27.54s CPU     27.54s WALL (       1 calls)

     Called by init_run:
     wfcinit      :      0.00s CPU      0.00s WALL (       1 calls)
     potinit      :      0.16s CPU      0.16s WALL (       1 calls)

     Called by electrons:
     c_bands      :     27.48s CPU     27.48s WALL (       1 calls)
     v_of_rho     :      0.00s CPU      0.00s WALL (       1 calls)
     v_h          :      0.00s CPU      0.00s WALL (       1 calls)
     v_xc         :      0.00s CPU      0.00s WALL (       1 calls)

     Called by c_bands:
     init_us_2    :      0.00s CPU      0.00s WALL (       2 calls)
     cegterg      :     26.61s CPU     26.61s WALL (       2 calls)

     Called by sum_band:

     Called by *egterg:
     h_psi        :      2.23s CPU      2.23s WALL (      35 calls)
     g_psi        :      0.10s CPU      0.10s WALL (      31 calls)
     cdiaghg      :     23.69s CPU     23.69s WALL (      33 calls)
     cegterg:over :      0.44s CPU      0.44s WALL (      31 calls)
     cegterg:upda :      0.31s CPU      0.31s WALL (      31 calls)
     cegterg:last :      0.14s CPU      0.14s WALL (       6 calls)
     cdiaghg:chol :      0.84s CPU      0.84s WALL (      33 calls)
     cdiaghg:inve :      0.76s CPU      0.76s WALL (      33 calls)
     cdiaghg:para :      0.49s CPU      0.49s WALL (      66 calls)

     Called by h_psi:
     h_psi:vloc   :      2.00s CPU      2.00s WALL (      35 calls)
     h_psi:vnl    :      0.23s CPU      0.23s WALL (      35 calls)
     add_vuspsi   :      0.15s CPU      0.15s WALL (      35 calls)

     General routines
     calbec       :      0.07s CPU      0.07s WALL (      35 calls)
     fft          :      0.01s CPU      0.01s WALL (       3 calls)
     fftw         :      1.70s CPU      1.70s WALL (    1702 calls)
     davcio       :      0.01s CPU      0.01s WALL (       4 calls)
 
     Parallel routines
     fft_scatter  :      0.66s CPU      0.66s WALL (    1705 calls)
     ALLTOALL     :      0.26s CPU      0.26s WALL (    1698 calls)
 
     PWSCF        :    32.19s CPU        32.19s WALL

 
   This run was terminated on:  18:48:21   1Apr2013            

=------------------------------------------------------------------------------=
   JOB DONE.
=------------------------------------------------------------------------------=
