
     Program PWSCF v.5.0.2 (svn rev. 9656) starts on 26Aug2016 at 11:54:43 

     This program is part of the open-source Quantum ESPRESSO suite
     for quantum simulation of materials; please cite
         "P. Giannozzi et al., J. Phys.:Condens. Matter 21 395502 (2009);
          URL http://www.quantum-espresso.org", 
     in publications or presentations arising from this work. More details at
     http://www.quantum-espresso.org/quote.php

     Parallel version (MPI), running on     1 processors

     Current dimensions of program PWSCF are:
     Max number of different atomic species (ntypx) = 10
     Max number of k-points (npk) =  40000
     Max angular momentum in pseudopotentials (lmaxx) =  3
     Waiting for input...
     Reading input from standard input
               file H.pz-vbc.UPF: wavefunction(s)  1S renormalized

     Subspace diagonalization in iterative solution of the eigenvalue problem:
     a serial algorithm will be used


     G-vector sticks info
     --------------------
     sticks:   dense  smooth     PW     G-vecs:    dense   smooth      PW
     Sum        9737    9737   2433               724295   724295   90447



     bravais-lattice index     =            1
     lattice parameter (alat)  =      35.0000  a.u.
     unit-cell volume          =   42875.0000 (a.u.)^3
     number of atoms/cell      =            5
     number of atomic types    =            2
     number of electrons       =         8.00
     number of Kohn-Sham states=            4
     kinetic-energy cutoff     =      25.0000  Ry
     charge density cutoff     =     100.0000  Ry
     convergence threshold     =      1.0E-06
     mixing beta               =       0.3000
     number of iterations used =            8  plain     mixing
     Exchange-correlation      =  SLA  PZ   NOGX NOGC ( 1 1 0 0 0)
     EXX-fraction              =        0.00

     celldm(1)=  35.000000  celldm(2)=   0.000000  celldm(3)=   0.000000
     celldm(4)=   0.000000  celldm(5)=   0.000000  celldm(6)=   0.000000

     crystal axes: (cart. coord. in units of alat)
               a(1) = (   1.000000   0.000000   0.000000 )  
               a(2) = (   0.000000   1.000000   0.000000 )  
               a(3) = (   0.000000   0.000000   1.000000 )  

     reciprocal axes: (cart. coord. in units 2 pi/alat)
               b(1) = (  1.000000  0.000000  0.000000 )  
               b(2) = (  0.000000  1.000000  0.000000 )  
               b(3) = (  0.000000  0.000000  1.000000 )  


     PseudoPot. # 1 for Si read from file:
     ./Si.pz-vbc.UPF
     MD5 check sum: 6dfa03ddd5817404712e03e4d12deb78
     Pseudo is Norm-conserving, Zval =  4.0
     Generated by new atomic code, or converted to UPF format
     Using radial grid of  431 points,  2 beta functions with: 
                l(1) =   0
                l(2) =   1

     PseudoPot. # 2 for H  read from file:
     ./H.pz-vbc.UPF
     MD5 check sum: 90becb985b714f09656c73597998d266
     Pseudo is Norm-conserving, Zval =  1.0
     Generated by new atomic code, or converted to UPF format
     Using radial grid of  131 points,  0 beta functions with: 

     atomic species   valence    mass     pseudopotential
        Si             4.00    28.08000     Si( 1.00)
        H              1.00     1.00800     H ( 1.00)

      2 Sym. Ops. (no inversion) found



   Cartesian axes

     site n.     atom                  positions (alat units)
         1           Si  tau(   1) = (   0.0000000   0.0000000   0.0000000  )
         2           H   tau(   2) = (   0.0000000   0.0803943   0.0000000  )
         3           H   tau(   3) = (   0.0000000  -0.0267997  -0.0757959  )
         4           H   tau(   4) = (  -0.0656412  -0.0267997   0.0378980  )
         5           H   tau(   5) = (   0.0656412  -0.0267997   0.0378980  )

     number of k points=     1
                       cart. coord. in units 2pi/alat
        k(    1) = (   0.0000000   0.0000000   0.0000000), wk =   2.0000000

     Dense  grid:   724295 G-vectors     FFT dimensions: ( 120, 120, 120)

     Largest allocated arrays     est. size (Mb)     dimensions
        Kohn-Sham Wavefunctions         5.52 Mb     (  90447,    4)
        NL pseudopotentials             5.52 Mb     (  90447,    4)
        Each V/rho on FFT grid         26.37 Mb     (1728000)
        Each G-vector array             5.53 Mb     ( 724295)
        G-vector shells                 0.02 Mb     (   2588)
     Largest temporary arrays     est. size (Mb)     dimensions
        Auxiliary wavefunctions        22.08 Mb     (  90447,   16)
        Each subspace H/S matrix        0.00 Mb     (  16,  16)
        Each <psi_i|beta_j> matrix      0.00 Mb     (      4,    4)
        Arrays for rho mixing         210.94 Mb     (1728000,   8)

     Initial potential from superposition of free atoms
     Check: negative starting charge=   -0.033970

     starting charge    7.99940, renormalised to    8.00000

     negative rho (up, down):  0.340E-01 0.000E+00
     Starting wfc are    8 randomized atomic wfcs

     total cpu time spent up to now is        3.3 secs

     per-process dynamical memory:   336.1 Mb

     Self-consistent Calculation

     iteration #  1     ecut=    25.00 Ry     beta=0.30
     Davidson diagonalization with overlap
     ethr =  1.00E-02,  avg # of iterations =  2.0

     negative rho (up, down):  0.237E-01 0.000E+00

     total cpu time spent up to now is        6.7 secs

     total energy              =     -12.43698590 Ry
     Harris-Foulkes estimate   =     -12.51136936 Ry
     estimated scf accuracy    <       0.27175855 Ry

     iteration #  2     ecut=    25.00 Ry     beta=0.30
     Davidson diagonalization with overlap
     ethr =  3.40E-03,  avg # of iterations =  1.0

     negative rho (up, down):  0.638E-02 0.000E+00

     total cpu time spent up to now is        9.3 secs

     total energy              =     -12.39663153 Ry
     Harris-Foulkes estimate   =     -12.44499306 Ry
     estimated scf accuracy    <       0.10017229 Ry

     iteration #  3     ecut=    25.00 Ry     beta=0.30
     Davidson diagonalization with overlap
     ethr =  1.25E-03,  avg # of iterations =  2.0

     negative rho (up, down):  0.273E-02 0.000E+00

     total cpu time spent up to now is       12.5 secs

     total energy              =     -12.40667185 Ry
     Harris-Foulkes estimate   =     -12.40794654 Ry
     estimated scf accuracy    <       0.00276302 Ry

     iteration #  4     ecut=    25.00 Ry     beta=0.30
     Davidson diagonalization with overlap
     ethr =  3.45E-05,  avg # of iterations =  2.0

     negative rho (up, down):  0.233E-02 0.000E+00

     total cpu time spent up to now is       16.2 secs

     total energy              =     -12.40727250 Ry
     Harris-Foulkes estimate   =     -12.40734427 Ry
     estimated scf accuracy    <       0.00039721 Ry

     iteration #  5     ecut=    25.00 Ry     beta=0.30
     Davidson diagonalization with overlap
     ethr =  4.97E-06,  avg # of iterations =  1.0

     negative rho (up, down):  0.959E-03 0.000E+00

     total cpu time spent up to now is       18.9 secs

     total energy              =     -12.40732776 Ry
     Harris-Foulkes estimate   =     -12.40729098 Ry
     estimated scf accuracy    <       0.00018524 Ry

     iteration #  6     ecut=    25.00 Ry     beta=0.30
     Davidson diagonalization with overlap
     ethr =  2.32E-06,  avg # of iterations =  1.0

     negative rho (up, down):  0.116E-06 0.000E+00

     total cpu time spent up to now is       21.6 secs

     total energy              =     -12.40724243 Ry
     Harris-Foulkes estimate   =     -12.40733817 Ry
     estimated scf accuracy    <       0.00021309 Ry

     iteration #  7     ecut=    25.00 Ry     beta=0.30
     Davidson diagonalization with overlap
     ethr =  2.32E-06,  avg # of iterations =  2.0

     negative rho (up, down):  0.280E-05 0.000E+00

     total cpu time spent up to now is       25.1 secs

     total energy              =     -12.40725982 Ry
     Harris-Foulkes estimate   =     -12.40726121 Ry
     estimated scf accuracy    <       0.00000542 Ry

     iteration #  8     ecut=    25.00 Ry     beta=0.30
     Davidson diagonalization with overlap
     ethr =  6.78E-08,  avg # of iterations =  1.0

     total cpu time spent up to now is       28.3 secs

     total energy              =     -12.40725916 Ry
     Harris-Foulkes estimate   =     -12.40726002 Ry
     estimated scf accuracy    <       0.00000210 Ry

     iteration #  9     ecut=    25.00 Ry     beta=0.30
     Davidson diagonalization with overlap
     ethr =  2.63E-08,  avg # of iterations =  2.0

     total cpu time spent up to now is       31.6 secs

     End of self-consistent calculation

          k = 0.0000 0.0000 0.0000 ( 90447 PWs)   bands (ev):

   -13.4373  -8.4126  -8.4124  -8.4122

!    total energy              =     -12.40725946 Ry
     Harris-Foulkes estimate   =     -12.40725952 Ry
     estimated scf accuracy    <       0.00000010 Ry

     The total energy is the sum of the following terms:

     one-electron contribution =     -33.34195609 Ry
     hartree contribution      =      17.04639257 Ry
     xc contribution           =      -4.93240080 Ry
     ewald contribution        =       8.82070486 Ry

     convergence has been achieved in   9 iterations

     Writing output data file SiH4.save

     init_run     :      3.01s CPU      3.24s WALL (       1 calls)
     electrons    :     27.10s CPU     28.37s WALL (       1 calls)

     Called by init_run:
     wfcinit      :      1.31s CPU      1.32s WALL (       1 calls)
     potinit      :      0.56s CPU      0.66s WALL (       1 calls)

     Called by electrons:
     c_bands      :     14.28s CPU     14.64s WALL (       9 calls)
     sum_band     :      6.11s CPU      6.25s WALL (       9 calls)
     v_of_rho     :      3.34s CPU      3.58s WALL (      10 calls)
     mix_rho      :      2.76s CPU      3.08s WALL (       9 calls)

     Called by c_bands:
     init_us_2    :      0.50s CPU      0.52s WALL (      19 calls)
     cegterg      :     13.88s CPU     14.24s WALL (       9 calls)

     Called by *egterg:
     h_psi        :     14.07s CPU     14.12s WALL (      24 calls)
     g_psi        :      0.05s CPU      0.05s WALL (      14 calls)
     cdiaghg      :      0.00s CPU      0.00s WALL (      23 calls)

     Called by h_psi:
     add_vuspsi   :      0.13s CPU      0.13s WALL (      24 calls)

     General routines
     calbec       :      0.15s CPU      0.15s WALL (      24 calls)
     fft          :      3.17s CPU      3.42s WALL (      39 calls)
     fftw         :     13.46s CPU     13.52s WALL (     232 calls)
     davcio       :      0.01s CPU      0.05s WALL (      10 calls)

     Parallel routines
     fft_scatter  :      2.91s CPU      3.00s WALL (     271 calls)

     PWSCF        :    30.29s CPU        31.84s WALL


   This run was terminated on:  11:55:15  26Aug2016            

=------------------------------------------------------------------------------=
   JOB DONE.
=------------------------------------------------------------------------------=
