
     Program PWSCF v.5.0.1 starts on 27Mar2013 at 12:12:43 

     This program is part of the open-source Quantum ESPRESSO suite
     for quantum simulation of materials; please cite
         "P. Giannozzi et al., J. Phys.:Condens. Matter 21 395502 (2009);
          URL http://www.quantum-espresso.org", 
     in publications or presentations arising from this work. More details at
     http://www.quantum-espresso.org/quote.php

     Parallel version (MPI), running on     1 processors

     Current dimensions of program PWSCF are:
     Max number of different atomic species (ntypx) = 10
     Max number of k-points (npk) =  40000
     Max angular momentum in pseudopotentials (lmaxx) =  3
     Waiting for input...
     Reading input from standard input

     Subspace diagonalization in iterative solution of the eigenvalue problem:
     a serial algorithm will be used

 
     G-vector sticks info
     --------------------
     sticks:   dense  smooth     PW     G-vecs:    dense   smooth      PW
     Sum         211     211     85                 2085     2085     459
 


     bravais-lattice index     =            2
     lattice parameter (alat)  =      10.1830  a.u.
     unit-cell volume          =     263.9777 (a.u.)^3
     number of atoms/cell      =            2
     number of atomic types    =            1
     number of electrons       =         8.00
     number of Kohn-Sham states=           50
     kinetic-energy cutoff     =      15.0000  Ry
     charge density cutoff     =      60.0000  Ry
     convergence threshold     =      1.0E-08
     mixing beta               =       0.7000
     number of iterations used =            8  plain     mixing
     Exchange-correlation      =  SLA  PZ   NOGX NOGC ( 1 1 0 0 0)
     EXX-fraction              =        0.00

     celldm(1)=  10.183000  celldm(2)=   0.000000  celldm(3)=   0.000000
     celldm(4)=   0.000000  celldm(5)=   0.000000  celldm(6)=   0.000000

     crystal axes: (cart. coord. in units of alat)
               a(1) = (  -0.500000   0.000000   0.500000 )  
               a(2) = (   0.000000   0.500000   0.500000 )  
               a(3) = (  -0.500000   0.500000   0.000000 )  

     reciprocal axes: (cart. coord. in units 2 pi/alat)
               b(1) = ( -1.000000 -1.000000  1.000000 )  
               b(2) = (  1.000000  1.000000  1.000000 )  
               b(3) = ( -1.000000  1.000000 -1.000000 )  


     PseudoPot. # 1 for Si read from file:
     ../../../pseudo/Si.vbc.UPF
     MD5 check sum: 7974b67c806a44bbea7c2da40a3c413a
     Pseudo is Norm-conserving, Zval =  4.0
     Generated by new atomic code, or converted to UPF format
     Using radial grid of  431 points,  2 beta functions with: 
                l(1) =   0
                l(2) =   1

     atomic species   valence    mass     pseudopotential
        Si             4.00    28.08600     Si( 1.00)

     24 Sym. Ops. (no inversion) found
          (note: 24 additional sym.ops. were found but ignored
           their fractional translations are incommensurate with FFT grid)

                                    s                        frac. trans.

      isym =  1     identity                                     

 cryst.   s( 1) = (     1          0          0      )
                  (     0          1          0      )
                  (     0          0          1      )

 cart.    s( 1) = (  1.0000000  0.0000000  0.0000000 )
                  (  0.0000000  1.0000000  0.0000000 )
                  (  0.0000000  0.0000000  1.0000000 )


      isym =  2     180 deg rotation - cart. axis [0,0,1]        

 cryst.   s( 2) = (     0          1         -1      )
                  (     1          0         -1      )
                  (     0          0         -1      )

 cart.    s( 2) = ( -1.0000000  0.0000000  0.0000000 )
                  (  0.0000000 -1.0000000  0.0000000 )
                  (  0.0000000  0.0000000  1.0000000 )


      isym =  3     180 deg rotation - cart. axis [0,1,0]        

 cryst.   s( 3) = (    -1          0          0      )
                  (    -1          0          1      )
                  (    -1          1          0      )

 cart.    s( 3) = ( -1.0000000  0.0000000  0.0000000 )
                  (  0.0000000  1.0000000  0.0000000 )
                  (  0.0000000  0.0000000 -1.0000000 )


      isym =  4     180 deg rotation - cart. axis [1,0,0]        

 cryst.   s( 4) = (     0         -1          1      )
                  (     0         -1          0      )
                  (     1         -1          0      )

 cart.    s( 4) = (  1.0000000  0.0000000  0.0000000 )
                  (  0.0000000 -1.0000000  0.0000000 )
                  (  0.0000000  0.0000000 -1.0000000 )


      isym =  5     120 deg rotation - cart. axis [-1,-1,-1]     

 cryst.   s( 5) = (    -1          0          1      )
                  (    -1          1          0      )
                  (    -1          0          0      )

 cart.    s( 5) = (  0.0000000  1.0000000  0.0000000 )
                  (  0.0000000  0.0000000  1.0000000 )
                  (  1.0000000  0.0000000  0.0000000 )


      isym =  6     120 deg rotation - cart. axis [-1,1,1]       

 cryst.   s( 6) = (     0          1          0      )
                  (     0          0          1      )
                  (     1          0          0      )

 cart.    s( 6) = (  0.0000000 -1.0000000  0.0000000 )
                  (  0.0000000  0.0000000  1.0000000 )
                  ( -1.0000000  0.0000000  0.0000000 )


      isym =  7     120 deg rotation - cart. axis [1,1,-1]       

 cryst.   s( 7) = (     1          0         -1      )
                  (     0          0         -1      )
                  (     0          1         -1      )

 cart.    s( 7) = (  0.0000000  1.0000000  0.0000000 )
                  (  0.0000000  0.0000000 -1.0000000 )
                  ( -1.0000000  0.0000000  0.0000000 )


      isym =  8     120 deg rotation - cart. axis [1,-1,1]       

 cryst.   s( 8) = (     0         -1          0      )
                  (     1         -1          0      )
                  (     0         -1          1      )

 cart.    s( 8) = (  0.0000000 -1.0000000  0.0000000 )
                  (  0.0000000  0.0000000 -1.0000000 )
                  (  1.0000000  0.0000000  0.0000000 )


      isym =  9     120 deg rotation - cart. axis [1,1,1]        

 cryst.   s( 9) = (     0          0         -1      )
                  (     0          1         -1      )
                  (     1          0         -1      )

 cart.    s( 9) = (  0.0000000  0.0000000  1.0000000 )
                  (  1.0000000  0.0000000  0.0000000 )
                  (  0.0000000  1.0000000  0.0000000 )


      isym = 10     120 deg rotation - cart. axis [-1,1,-1]      

 cryst.   s(10) = (    -1          1          0      )
                  (    -1          0          0      )
                  (    -1          0          1      )

 cart.    s(10) = (  0.0000000  0.0000000  1.0000000 )
                  ( -1.0000000  0.0000000  0.0000000 )
                  (  0.0000000 -1.0000000  0.0000000 )


      isym = 11     120 deg rotation - cart. axis [1,-1,-1]      

 cryst.   s(11) = (     0          0          1      )
                  (     1          0          0      )
                  (     0          1          0      )

 cart.    s(11) = (  0.0000000  0.0000000 -1.0000000 )
                  ( -1.0000000  0.0000000  0.0000000 )
                  (  0.0000000  1.0000000  0.0000000 )


      isym = 12     120 deg rotation - cart. axis [-1,-1,1]      

 cryst.   s(12) = (     1         -1          0      )
                  (     0         -1          1      )
                  (     0         -1          0      )

 cart.    s(12) = (  0.0000000  0.0000000 -1.0000000 )
                  (  1.0000000  0.0000000  0.0000000 )
                  (  0.0000000 -1.0000000  0.0000000 )


      isym = 13     inv. 180 deg rotation - cart. axis [1,1,0]   

 cryst.   s(13) = (     0          1          0      )
                  (     1          0          0      )
                  (     0          0          1      )

 cart.    s(13) = (  0.0000000 -1.0000000  0.0000000 )
                  ( -1.0000000  0.0000000  0.0000000 )
                  (  0.0000000  0.0000000  1.0000000 )


      isym = 14     inv. 180 deg rotation - cart. axis [1,-1,0]  

 cryst.   s(14) = (     1          0         -1      )
                  (     0          1         -1      )
                  (     0          0         -1      )

 cart.    s(14) = (  0.0000000  1.0000000  0.0000000 )
                  (  1.0000000  0.0000000  0.0000000 )
                  (  0.0000000  0.0000000  1.0000000 )


      isym = 15     inv.  90 deg rotation - cart. axis [0,0,-1]  

 cryst.   s(15) = (     0         -1          0      )
                  (     0         -1          1      )
                  (     1         -1          0      )

 cart.    s(15) = (  0.0000000 -1.0000000  0.0000000 )
                  (  1.0000000  0.0000000  0.0000000 )
                  (  0.0000000  0.0000000 -1.0000000 )


      isym = 16     inv.  90 deg rotation - cart. axis [0,0,1]   

 cryst.   s(16) = (    -1          0          1      )
                  (    -1          0          0      )
                  (    -1          1          0      )

 cart.    s(16) = (  0.0000000  1.0000000  0.0000000 )
                  ( -1.0000000  0.0000000  0.0000000 )
                  (  0.0000000  0.0000000 -1.0000000 )


      isym = 17     inv. 180 deg rotation - cart. axis [1,0,1]   

 cryst.   s(17) = (     1          0          0      )
                  (     0          0          1      )
                  (     0          1          0      )

 cart.    s(17) = (  0.0000000  0.0000000 -1.0000000 )
                  (  0.0000000  1.0000000  0.0000000 )
                  ( -1.0000000  0.0000000  0.0000000 )


      isym = 18     inv. 180 deg rotation - cart. axis [-1,0,1]  

 cryst.   s(18) = (    -1          0          0      )
                  (    -1          1          0      )
                  (    -1          0          1      )

 cart.    s(18) = (  0.0000000  0.0000000  1.0000000 )
                  (  0.0000000  1.0000000  0.0000000 )
                  (  1.0000000  0.0000000  0.0000000 )


      isym = 19     inv.  90 deg rotation - cart. axis [0,1,0]   

 cryst.   s(19) = (     0         -1          1      )
                  (     1         -1          0      )
                  (     0         -1          0      )

 cart.    s(19) = (  0.0000000  0.0000000 -1.0000000 )
                  (  0.0000000 -1.0000000  0.0000000 )
                  (  1.0000000  0.0000000  0.0000000 )


      isym = 20     inv.  90 deg rotation - cart. axis [0,-1,0]  

 cryst.   s(20) = (     0          1         -1      )
                  (     0          0         -1      )
                  (     1          0         -1      )

 cart.    s(20) = (  0.0000000  0.0000000  1.0000000 )
                  (  0.0000000 -1.0000000  0.0000000 )
                  ( -1.0000000  0.0000000  0.0000000 )


      isym = 21     inv. 180 deg rotation - cart. axis [0,1,1]   

 cryst.   s(21) = (     1         -1          0      )
                  (     0         -1          0      )
                  (     0         -1          1      )

 cart.    s(21) = (  1.0000000  0.0000000  0.0000000 )
                  (  0.0000000  0.0000000 -1.0000000 )
                  (  0.0000000 -1.0000000  0.0000000 )


      isym = 22     inv. 180 deg rotation - cart. axis [0,1,-1]  

 cryst.   s(22) = (     0          0          1      )
                  (     0          1          0      )
                  (     1          0          0      )

 cart.    s(22) = (  1.0000000  0.0000000  0.0000000 )
                  (  0.0000000  0.0000000  1.0000000 )
                  (  0.0000000  1.0000000  0.0000000 )


      isym = 23     inv.  90 deg rotation - cart. axis [-1,0,0]  

 cryst.   s(23) = (     0          0         -1      )
                  (     1          0         -1      )
                  (     0          1         -1      )

 cart.    s(23) = ( -1.0000000  0.0000000  0.0000000 )
                  (  0.0000000  0.0000000 -1.0000000 )
                  (  0.0000000  1.0000000  0.0000000 )


      isym = 24     inv.  90 deg rotation - cart. axis [1,0,0]   

 cryst.   s(24) = (    -1          1          0      )
                  (    -1          0          1      )
                  (    -1          0          0      )

 cart.    s(24) = ( -1.0000000  0.0000000  0.0000000 )
                  (  0.0000000  0.0000000  1.0000000 )
                  (  0.0000000 -1.0000000  0.0000000 )


     point group T_d (-43m) 
     there are  5 classes
     the character table:

       E     8C3   3C2   6S4   6s_d 
A_1    1.00  1.00  1.00  1.00  1.00
A_2    1.00  1.00  1.00 -1.00 -1.00
E      2.00 -1.00  2.00  0.00  0.00
T_1    3.00  0.00 -1.00  1.00 -1.00
T_2    3.00  0.00 -1.00 -1.00  1.00

     the symmetry operations in each class:
     E        1
     3C2      2    3    4
     8C3      5    7    8    6   12    9   10   11
     6s_d    13   14   17   18   21   22
     6S4     15   16   20   19   23   24

   Cartesian axes

     site n.     atom                  positions (alat units)
         1           Si  tau(   1) = (   0.0000000   0.0000000   0.0000000  )
         2           Si  tau(   2) = (   0.2500000   0.2500000   0.2500000  )

   Crystallographic axes

     site n.     atom                  positions (cryst. coord.)
         1           Si  tau(   1) = (  0.0000000  0.0000000  0.0000000  )
         2           Si  tau(   2) = ( -0.2500000  0.7500000 -0.2500000  )

     number of k points=    28
                       cart. coord. in units 2pi/alat
        k(    1) = (  -0.0833333   0.0833333   0.0833333), wk =   0.0185185
        k(    2) = (  -0.2500000   0.2500000  -0.0833333), wk =   0.0555556
        k(    3) = (  -0.4166667   0.4166667  -0.2500000), wk =   0.0555556
        k(    4) = (   0.4166667  -0.4166667   0.5833333), wk =   0.0555556
        k(    5) = (   0.2500000  -0.2500000   0.4166667), wk =   0.0555556
        k(    6) = (   0.0833333  -0.0833333   0.2500000), wk =   0.0555556
        k(    7) = (  -0.0833333   0.4166667   0.0833333), wk =   0.0555556
        k(    8) = (  -0.2500000   0.5833333  -0.0833333), wk =   0.1111111
        k(    9) = (   0.5833333  -0.2500000   0.7500000), wk =   0.1111111
        k(   10) = (   0.4166667  -0.0833333   0.5833333), wk =   0.1111111
        k(   11) = (   0.2500000   0.0833333   0.4166667), wk =   0.1111111
        k(   12) = (  -0.0833333   0.7500000   0.0833333), wk =   0.0555556
        k(   13) = (   0.7500000  -0.0833333   0.9166667), wk =   0.1111111
        k(   14) = (   0.5833333   0.0833333   0.7500000), wk =   0.1111111
        k(   15) = (   0.4166667   0.2500000   0.5833333), wk =   0.1111111
        k(   16) = (  -0.0833333  -0.9166667   0.0833333), wk =   0.0555556
        k(   17) = (  -0.2500000  -0.7500000  -0.0833333), wk =   0.1111111
        k(   18) = (  -0.0833333  -0.5833333   0.0833333), wk =   0.0555556
        k(   19) = (  -0.2500000   0.2500000   0.2500000), wk =   0.0185185
        k(   20) = (  -0.4166667   0.4166667   0.0833333), wk =   0.0555556
        k(   21) = (   0.4166667  -0.4166667   0.9166667), wk =   0.0555556
        k(   22) = (   0.2500000  -0.2500000   0.7500000), wk =   0.0555556
        k(   23) = (  -0.2500000   0.5833333   0.2500000), wk =   0.0555556
        k(   24) = (   0.5833333  -0.2500000   1.0833333), wk =   0.1111111
        k(   25) = (   0.4166667  -0.0833333   0.9166667), wk =   0.1111111
        k(   26) = (  -0.2500000  -1.0833333   0.2500000), wk =   0.0555556
        k(   27) = (  -0.4166667   0.4166667   0.4166667), wk =   0.0185185
        k(   28) = (   0.4166667  -0.4166667   1.2500000), wk =   0.0555556

                       cryst. coord.
        k(    1) = (   0.0833333   0.0833333   0.0833333), wk =   0.0185185
        k(    2) = (   0.0833333   0.0833333   0.2500000), wk =   0.0555556
        k(    3) = (   0.0833333   0.0833333   0.4166667), wk =   0.0555556
        k(    4) = (   0.0833333   0.0833333  -0.4166667), wk =   0.0555556
        k(    5) = (   0.0833333   0.0833333  -0.2500000), wk =   0.0555556
        k(    6) = (   0.0833333   0.0833333  -0.0833333), wk =   0.0555556
        k(    7) = (   0.0833333   0.2500000   0.2500000), wk =   0.0555556
        k(    8) = (   0.0833333   0.2500000   0.4166667), wk =   0.1111111
        k(    9) = (   0.0833333   0.2500000  -0.4166667), wk =   0.1111111
        k(   10) = (   0.0833333   0.2500000  -0.2500000), wk =   0.1111111
        k(   11) = (   0.0833333   0.2500000  -0.0833333), wk =   0.1111111
        k(   12) = (   0.0833333   0.4166667   0.4166667), wk =   0.0555556
        k(   13) = (   0.0833333   0.4166667  -0.4166667), wk =   0.1111111
        k(   14) = (   0.0833333   0.4166667  -0.2500000), wk =   0.1111111
        k(   15) = (   0.0833333   0.4166667  -0.0833333), wk =   0.1111111
        k(   16) = (   0.0833333  -0.4166667  -0.4166667), wk =   0.0555556
        k(   17) = (   0.0833333  -0.4166667  -0.2500000), wk =   0.1111111
        k(   18) = (   0.0833333  -0.2500000  -0.2500000), wk =   0.0555556
        k(   19) = (   0.2500000   0.2500000   0.2500000), wk =   0.0185185
        k(   20) = (   0.2500000   0.2500000   0.4166667), wk =   0.0555556
        k(   21) = (   0.2500000   0.2500000  -0.4166667), wk =   0.0555556
        k(   22) = (   0.2500000   0.2500000  -0.2500000), wk =   0.0555556
        k(   23) = (   0.2500000   0.4166667   0.4166667), wk =   0.0555556
        k(   24) = (   0.2500000   0.4166667  -0.4166667), wk =   0.1111111
        k(   25) = (   0.2500000   0.4166667  -0.2500000), wk =   0.1111111
        k(   26) = (   0.2500000  -0.4166667  -0.4166667), wk =   0.0555556
        k(   27) = (   0.4166667   0.4166667   0.4166667), wk =   0.0185185
        k(   28) = (   0.4166667   0.4166667  -0.4166667), wk =   0.0555556

     Dense  grid:     2085 G-vectors     FFT dimensions: (  18,  18,  18)

     Largest allocated arrays     est. size (Mb)     dimensions
        Kohn-Sham Wavefunctions         0.21 Mb     (    271,   50)
        NL pseudopotentials             0.03 Mb     (    271,    8)
        Each V/rho on FFT grid          0.09 Mb     (   5832)
        Each G-vector array             0.02 Mb     (   2085)
        G-vector shells                 0.00 Mb     (     54)
     Largest temporary arrays     est. size (Mb)     dimensions
        Auxiliary wavefunctions         0.83 Mb     (    271,  200)
        Each subspace H/S matrix        0.61 Mb     ( 200, 200)
        Each <psi_i|beta_j> matrix      0.01 Mb     (      8,   50)
        Arrays for rho mixing           0.71 Mb     (   5832,   8)

     Initial potential from superposition of free atoms

     starting charge    7.99901, renormalised to    8.00000
     Starting wfc are    8 randomized atomic wfcs

     total cpu time spent up to now is        0.5 secs

     per-process dynamical memory:     6.4 Mb

     Self-consistent Calculation

     iteration #  1     ecut=    15.00 Ry     beta=0.70
     Davidson diagonalization with overlap
     ethr =  1.00E-02,  avg # of iterations =  4.0

     Threshold (ethr) on eigenvalues was too large:
     Diagonalizing with lowered threshold

     Davidson diagonalization with overlap
     ethr =  7.78E-04,  avg # of iterations =  1.0

     total cpu time spent up to now is        6.0 secs

     total energy              =     -15.83063138 Ry
     Harris-Foulkes estimate   =     -15.85200489 Ry
     estimated scf accuracy    <       0.06221849 Ry

     iteration #  2     ecut=    15.00 Ry     beta=0.70
     Davidson diagonalization with overlap
     ethr =  7.78E-04,  avg # of iterations =  1.0

     total cpu time spent up to now is        7.4 secs

     total energy              =     -15.83446812 Ry
     Harris-Foulkes estimate   =     -15.83467359 Ry
     estimated scf accuracy    <       0.00170017 Ry

     iteration #  3     ecut=    15.00 Ry     beta=0.70
     Davidson diagonalization with overlap
     ethr =  2.13E-05,  avg # of iterations =  3.1

     total cpu time spent up to now is        9.4 secs

     total energy              =     -15.83447344 Ry
     Harris-Foulkes estimate   =     -15.83447918 Ry
     estimated scf accuracy    <       0.00005928 Ry

     iteration #  4     ecut=    15.00 Ry     beta=0.70
     Davidson diagonalization with overlap
     ethr =  7.41E-07,  avg # of iterations =  4.0

     total cpu time spent up to now is       11.6 secs

     total energy              =     -15.83447383 Ry
     Harris-Foulkes estimate   =     -15.83447381 Ry
     estimated scf accuracy    <       0.00000002 Ry

     iteration #  5     ecut=    15.00 Ry     beta=0.70
     Davidson diagonalization with overlap
     ethr =  2.06E-10,  avg # of iterations =  5.2

     total cpu time spent up to now is       15.5 secs

     End of self-consistent calculation

          k =-0.0833 0.0833 0.0833 (   271 PWs)   bands (ev):

    -5.6815   5.4513   6.1618   6.1618   8.9526   9.1047   9.1047  10.4709
    13.9340  13.9340  14.5012  17.2442  18.1988  18.1988  22.1508  28.7067
    28.7320  28.7320  30.6143  30.6143  32.6014  32.6014  32.9977  36.2472
    37.2935  37.2935  40.2547  41.5496  41.5496  41.5667  44.7872  44.7872
    46.4035  46.4035  46.8441  48.4194  48.5342  48.5342  50.0422  50.3400
    50.9219  50.9219  51.2973  51.2973  51.5137  52.6624  53.3236  53.3236
    53.8660  55.5415

     occupation numbers 
     0.0185   0.0185   0.0185   0.0185   0.0000   0.0000   0.0000   0.0000
     0.0000   0.0000   0.0000   0.0000   0.0000   0.0000   0.0000   0.0000
     0.0000   0.0000   0.0000   0.0000   0.0000   0.0000   0.0000   0.0000
     0.0000   0.0000   0.0000   0.0000   0.0000   0.0000   0.0000   0.0000
     0.0000   0.0000   0.0000   0.0000   0.0000   0.0000   0.0000   0.0000
     0.0000   0.0000   0.0000   0.0000   0.0000   0.0000   0.0000   0.0000
     0.0000   0.0000

          k =-0.2500 0.2500-0.0833 (   268 PWs)   bands (ev):

    -5.1933   3.3554   4.8830   5.9482   9.0916   9.5061   9.8802  12.1175
    12.8629  14.3864  15.8183  17.4212  19.2670  20.9976  24.2380  24.5118
    26.7719  27.0391  29.3216  30.0657  32.9456  33.2855  35.2708  36.7184
    37.3513  38.9778  39.4160  40.4208  40.6037  41.4180  42.3743  43.1247
    43.4024  44.8026  46.1255  46.4641  47.0997  48.2745  48.4399  48.8371
    50.9143  51.5255  51.7334  52.6365  52.7783  53.1877  54.5602  56.0033
    56.0830  57.4040

     occupation numbers 
     0.0556   0.0556   0.0556   0.0556   0.0000   0.0000   0.0000   0.0000
     0.0000   0.0000   0.0000   0.0000   0.0000   0.0000   0.0000   0.0000
     0.0000   0.0000   0.0000   0.0000   0.0000   0.0000   0.0000   0.0000
     0.0000   0.0000   0.0000   0.0000   0.0000   0.0000   0.0000   0.0000
     0.0000   0.0000   0.0000   0.0000   0.0000   0.0000   0.0000   0.0000
     0.0000   0.0000   0.0000   0.0000   0.0000   0.0000   0.0000   0.0000
     0.0000   0.0000

          k =-0.4167 0.4167-0.2500 (   258 PWs)   bands (ev):

    -4.0659   0.5231   4.4211   5.2954   8.5887   9.8923   9.9264  13.8094
    14.0258  15.4192  16.9464  19.1149  20.8340  21.6054  23.0182  23.9967
    25.6894  29.2324  29.7766  30.2154  30.7110  32.6659  33.6966  35.1633
    35.6833  36.5331  37.7674  38.1106  39.2261  40.4053  41.0347  41.2678
    44.1330  44.6504  46.3291  46.5869  47.2380  47.5732  47.9728  50.4807
    51.7046  52.3091  52.3633  53.2160  55.9708  56.5480  57.4869  59.0662
    59.1881  60.9114

     occupation numbers 
     0.0556   0.0556   0.0556   0.0556   0.0000   0.0000   0.0000   0.0000
     0.0000   0.0000   0.0000   0.0000   0.0000   0.0000   0.0000   0.0000
     0.0000   0.0000   0.0000   0.0000   0.0000   0.0000   0.0000   0.0000
     0.0000   0.0000   0.0000   0.0000   0.0000   0.0000   0.0000   0.0000
     0.0000   0.0000   0.0000   0.0000   0.0000   0.0000   0.0000   0.0000
     0.0000   0.0000   0.0000   0.0000   0.0000   0.0000   0.0000   0.0000
     0.0000   0.0000

          k = 0.4167-0.4167 0.5833 (   259 PWs)   bands (ev):

    -3.3328  -0.6648   4.4965   4.8994   8.4232   9.5873  10.0414  14.1730
    15.4451  17.0544  17.8068  17.9969  18.7365  20.4175  25.1507  26.7677
    26.9344  28.0690  28.5973  29.0771  31.9735  32.2370  32.7141  34.4055
    34.6810  35.4145  37.3647  37.4717  39.1207  39.1982  40.2915  40.2964
    43.4060  44.0973  45.3352  46.9939  47.5720  50.1105  50.5494  50.7761
    51.9820  53.9626  54.1941  55.3126  55.5534  56.2716  57.0821  58.2603
    58.6190  61.0458

     occupation numbers 
     0.0556   0.0556   0.0556   0.0556   0.0000   0.0000   0.0000   0.0000
     0.0000   0.0000   0.0000   0.0000   0.0000   0.0000   0.0000   0.0000
     0.0000   0.0000   0.0000   0.0000   0.0000   0.0000   0.0000   0.0000
     0.0000   0.0000   0.0000   0.0000   0.0000   0.0000   0.0000   0.0000
     0.0000   0.0000   0.0000   0.0000   0.0000   0.0000   0.0000   0.0000
     0.0000   0.0000   0.0000   0.0000   0.0000   0.0000   0.0000   0.0000
     0.0000   0.0000

          k = 0.2500-0.2500 0.4167 (   265 PWs)   bands (ev):

    -4.4924   1.3903   4.9568   5.0065   8.6491   9.6447  10.4442  12.3295
    15.0009  15.0145  15.5929  19.3793  20.7629  21.9758  23.0458  23.7019
    24.8217  28.0777  29.5447  30.2902  32.5209  32.6138  33.9843  36.1994
    36.6932  37.2653  38.0652  38.6677  39.1256  40.4866  41.7793  42.9934
    44.4622  44.9912  45.2175  45.4035  47.2870  48.2693  48.2886  49.2548
    50.1990  50.5949  53.0974  53.9832  54.1728  55.0594  56.7219  57.0477
    58.8730  59.6147

     occupation numbers 
     0.0556   0.0556   0.0556   0.0556   0.0000   0.0000   0.0000   0.0000
     0.0000   0.0000   0.0000   0.0000   0.0000   0.0000   0.0000   0.0000
     0.0000   0.0000   0.0000   0.0000   0.0000   0.0000   0.0000   0.0000
     0.0000   0.0000   0.0000   0.0000   0.0000   0.0000   0.0000   0.0000
     0.0000   0.0000   0.0000   0.0000   0.0000   0.0000   0.0000   0.0000
     0.0000   0.0000   0.0000   0.0000   0.0000   0.0000   0.0000   0.0000
     0.0000   0.0000

          k = 0.0833-0.0833 0.2500 (   267 PWs)   bands (ev):

    -5.4309   4.3860   5.4903   5.6982   8.6173   9.5970  10.0374  11.2948
    13.0506  14.2900  15.3851  17.3860  18.5883  19.4314  23.6611  26.4206
    26.6726  28.8403  29.3679  29.8820  32.7937  33.3855  34.1839  37.4459
    38.4707  38.6731  39.5602  39.9624  40.7044  41.9869  42.5943  43.6514
    44.1351  45.8685  46.1829  47.5629  47.8388  48.9036  49.4714  49.8317
    50.3417  50.8704  51.2397  51.6956  52.7163  53.8897  54.0538  54.8491
    55.0067  55.1075

     occupation numbers 
     0.0556   0.0556   0.0556   0.0556   0.0000   0.0000   0.0000   0.0000
     0.0000   0.0000   0.0000   0.0000   0.0000   0.0000   0.0000   0.0000
     0.0000   0.0000   0.0000   0.0000   0.0000   0.0000   0.0000   0.0000
     0.0000   0.0000   0.0000   0.0000   0.0000   0.0000   0.0000   0.0000
     0.0000   0.0000   0.0000   0.0000   0.0000   0.0000   0.0000   0.0000
     0.0000   0.0000   0.0000   0.0000   0.0000   0.0000   0.0000   0.0000
     0.0000   0.0000

          k =-0.0833 0.4167 0.0833 (   266 PWs)   bands (ev):

    -4.9416   3.1974   4.7334   4.7383   8.0069  10.2524  11.0499  11.2885
    14.0275  15.0037  16.7423  18.2718  19.3256  20.5162  24.1290  24.4841
    26.1490  27.1127  27.8792  30.0512  32.7994  33.9718  34.6473  36.4159
    37.4234  38.0663  39.0764  39.8746  40.5867  41.6774  41.6920  43.3800
    44.1082  44.8368  45.0813  46.7992  47.0758  48.0281  48.7983  50.0792
    50.4163  51.1004  52.0734  52.2986  53.1433  53.9757  54.1333  55.7479
    56.3473  57.4496

     occupation numbers 
     0.0556   0.0556   0.0556   0.0556   0.0000   0.0000   0.0000   0.0000
     0.0000   0.0000   0.0000   0.0000   0.0000   0.0000   0.0000   0.0000
     0.0000   0.0000   0.0000   0.0000   0.0000   0.0000   0.0000   0.0000
     0.0000   0.0000   0.0000   0.0000   0.0000   0.0000   0.0000   0.0000
     0.0000   0.0000   0.0000   0.0000   0.0000   0.0000   0.0000   0.0000
     0.0000   0.0000   0.0000   0.0000   0.0000   0.0000   0.0000   0.0000
     0.0000   0.0000

          k =-0.2500 0.5833-0.0833 (   258 PWs)   bands (ev):

    -4.0065   1.3331   3.3638   4.3430   8.4175  10.0672  10.9401  12.4248
    15.3396  17.3143  17.5565  19.0593  20.3858  21.5385  22.3008  24.5402
    25.5639  27.0155  28.1359  30.8799  31.0650  31.8778  33.2796  34.7816
    35.8662  37.2497  37.8824  38.9878  39.4931  40.4342  42.1613  42.6332
    43.8511  45.0698  45.2390  47.1877  47.6611  48.3874  48.9627  49.5010
    51.3912  51.4493  53.1852  54.1106  54.7124  55.1844  56.2978  56.9008
    57.5317  58.5009

     occupation numbers 
     0.1111   0.1111   0.1111   0.1111   0.0000   0.0000   0.0000   0.0000
     0.0000   0.0000   0.0000   0.0000   0.0000   0.0000   0.0000   0.0000
     0.0000   0.0000   0.0000   0.0000   0.0000   0.0000   0.0000   0.0000
     0.0000   0.0000   0.0000   0.0000   0.0000   0.0000   0.0000   0.0000
     0.0000   0.0000   0.0000   0.0000   0.0000   0.0000   0.0000   0.0000
     0.0000   0.0000   0.0000   0.0000   0.0000   0.0000   0.0000   0.0000
     0.0000   0.0000

          k = 0.5833-0.2500 0.7500 (   256 PWs)   bands (ev):

    -2.8409  -0.4895   2.7585   4.1025   8.6749  10.2816  12.2930  12.6556
    14.6830  16.9995  18.2534  18.8380  21.0360  23.0568  24.3755  25.2390
    26.0048  26.4292  28.1896  28.5654  30.8857  31.7293  32.6646  33.2567
    34.6171  36.0075  36.7599  37.6494  38.2908  39.3600  41.0613  42.0423
    43.4490  44.5743  46.5200  47.4832  48.6764  50.3359  50.6047  51.1976
    52.2924  52.5116  53.5383  54.5158  55.3174  56.7086  57.2487  58.4823
    59.2626  60.3312

     occupation numbers 
     0.1111   0.1111   0.1111   0.1111   0.0000   0.0000   0.0000   0.0000
     0.0000   0.0000   0.0000   0.0000   0.0000   0.0000   0.0000   0.0000
     0.0000   0.0000   0.0000   0.0000   0.0000   0.0000   0.0000   0.0000
     0.0000   0.0000   0.0000   0.0000   0.0000   0.0000   0.0000   0.0000
     0.0000   0.0000   0.0000   0.0000   0.0000   0.0000   0.0000   0.0000
     0.0000   0.0000   0.0000   0.0000   0.0000   0.0000   0.0000   0.0000
     0.0000   0.0000

          k = 0.4167-0.0833 0.5833 (   259 PWs)   bands (ev):

    -3.5996   0.6142   2.6961   4.6087   9.3185   9.9332  11.6550  12.1538
    14.4453  16.0663  18.5524  19.5610  20.6176  21.9945  23.4553  24.6250
    25.5533  27.8443  28.2958  29.8162  31.2858  31.8043  32.5898  33.6587
    34.9130  36.4064  37.3004  38.4835  39.4879  40.3611  41.2618  42.9720
    43.4765  45.0090  45.7625  46.6517  47.1135  47.9191  48.5989  50.9519
    51.1842  53.4930  54.0075  55.2573  55.7485  56.3594  56.8049  58.0985
    58.7419  59.9853

     occupation numbers 
     0.1111   0.1111   0.1111   0.1111   0.0000   0.0000   0.0000   0.0000
     0.0000   0.0000   0.0000   0.0000   0.0000   0.0000   0.0000   0.0000
     0.0000   0.0000   0.0000   0.0000   0.0000   0.0000   0.0000   0.0000
     0.0000   0.0000   0.0000   0.0000   0.0000   0.0000   0.0000   0.0000
     0.0000   0.0000   0.0000   0.0000   0.0000   0.0000   0.0000   0.0000
     0.0000   0.0000   0.0000   0.0000   0.0000   0.0000   0.0000   0.0000
     0.0000   0.0000

          k = 0.2500 0.0833 0.4167 (   264 PWs)   bands (ev):

    -4.7113   2.3258   4.0839   5.3068   8.9361   9.9001  10.9287  11.2375
    13.7534  15.7760  16.5474  18.3371  20.0963  22.1719  22.2911  24.6886
    26.0636  27.5624  28.3458  29.4648  32.1458  33.6786  34.8262  36.2091
    36.8525  37.8041  38.6359  40.0180  40.1095  40.7564  41.8631  42.6772
    43.6907  45.0012  45.8832  46.1862  46.6847  47.4830  48.3368  49.4486
    50.5172  51.1342  51.9474  53.0787  53.9631  55.2032  56.0294  56.8768
    57.2865  58.5714

     occupation numbers 
     0.1111   0.1111   0.1111   0.1111   0.0000   0.0000   0.0000   0.0000
     0.0000   0.0000   0.0000   0.0000   0.0000   0.0000   0.0000   0.0000
     0.0000   0.0000   0.0000   0.0000   0.0000   0.0000   0.0000   0.0000
     0.0000   0.0000   0.0000   0.0000   0.0000   0.0000   0.0000   0.0000
     0.0000   0.0000   0.0000   0.0000   0.0000   0.0000   0.0000   0.0000
     0.0000   0.0000   0.0000   0.0000   0.0000   0.0000   0.0000   0.0000
     0.0000   0.0000

          k =-0.0833 0.7500 0.0833 (   255 PWs)   bands (ev):

    -3.2793   0.5233   3.3190   3.6808   7.1472   8.1324  14.0150  14.0703
    17.3652  17.5395  18.6781  19.0606  20.8385  21.5363  22.2549  23.6427
    23.9665  25.5221  29.0925  29.7492  30.8462  31.1528  31.9598  33.7014
    35.0617  35.7933  37.0765  39.6332  41.3096  41.7586  42.2001  42.9587
    44.7146  45.4627  46.3978  46.4006  47.8534  48.3979  48.4035  50.0116
    50.5390  50.8527  52.8750  53.0211  54.9931  56.3332  56.3630  57.8122
    58.7827  61.0466

     occupation numbers 
     0.0556   0.0556   0.0556   0.0556   0.0000   0.0000   0.0000   0.0000
     0.0000   0.0000   0.0000   0.0000   0.0000   0.0000   0.0000   0.0000
     0.0000   0.0000   0.0000   0.0000   0.0000   0.0000   0.0000   0.0000
     0.0000   0.0000   0.0000   0.0000   0.0000   0.0000   0.0000   0.0000
     0.0000   0.0000   0.0000   0.0000   0.0000   0.0000   0.0000   0.0000
     0.0000   0.0000   0.0000   0.0000   0.0000   0.0000   0.0000   0.0000
     0.0000   0.0000

          k = 0.7500-0.0833 0.9167 (   256 PWs)   bands (ev):

    -2.0446  -0.8443   2.4352   3.2500   7.7809   8.9338  13.5292  15.0246
    15.7439  17.4731  18.9405  20.6093  21.3298  22.3075  22.9382  24.5853
    24.9934  26.7606  27.6888  27.8717  29.6391  30.0191  30.3138  32.0173
    35.8431  37.3604  37.8206  38.2950  39.2479  40.3926  41.4047  43.2224
    44.2313  45.3784  46.0818  46.9344  47.4458  48.7408  49.8406  50.8350
    52.2470  53.5610  54.2091  54.4662  55.7711  56.2358  57.3004  57.9875
    59.6328  60.3009

     occupation numbers 
     0.1111   0.1111   0.1111   0.1111   0.0000   0.0000   0.0000   0.0000
     0.0000   0.0000   0.0000   0.0000   0.0000   0.0000   0.0000   0.0000
     0.0000   0.0000   0.0000   0.0000   0.0000   0.0000   0.0000   0.0000
     0.0000   0.0000   0.0000   0.0000   0.0000   0.0000   0.0000   0.0000
     0.0000   0.0000   0.0000   0.0000   0.0000   0.0000   0.0000   0.0000
     0.0000   0.0000   0.0000   0.0000   0.0000   0.0000   0.0000   0.0000
     0.0000   0.0000

          k = 0.5833 0.0833 0.7500 (   257 PWs)   bands (ev):

    -2.4115  -0.5289   1.9373   3.8165   8.4262  11.4085  12.4249  13.1276
    13.8377  15.8213  19.9630  20.4409  22.3826  22.7635  23.7793  23.9795
    25.7687  26.0772  27.9050  28.8277  29.5815  31.5378  32.7206  32.9296
    34.0608  35.2609  36.4331  37.3852  39.1083  39.8550  40.8056  43.3292
    44.5221  45.3671  46.0974  46.4245  49.4148  49.6472  50.4917  51.0695
    51.8864  52.4256  53.6744  54.9013  56.1893  56.5317  57.7608  58.7133
    58.7863  60.7684

     occupation numbers 
     0.1111   0.1111   0.1111   0.1111   0.0000   0.0000   0.0000   0.0000
     0.0000   0.0000   0.0000   0.0000   0.0000   0.0000   0.0000   0.0000
     0.0000   0.0000   0.0000   0.0000   0.0000   0.0000   0.0000   0.0000
     0.0000   0.0000   0.0000   0.0000   0.0000   0.0000   0.0000   0.0000
     0.0000   0.0000   0.0000   0.0000   0.0000   0.0000   0.0000   0.0000
     0.0000   0.0000   0.0000   0.0000   0.0000   0.0000   0.0000   0.0000
     0.0000   0.0000

          k = 0.4167 0.2500 0.5833 (   256 PWs)   bands (ev):

    -3.4766  -0.1284   3.6974   4.7143   8.9630   9.5177  10.9121  13.1353
    15.3994  16.0874  17.6900  18.9188  19.8386  22.1165  23.5082  25.1037
    26.8600  28.0351  28.7490  29.5273  30.9850  31.8242  33.7559  34.1885
    34.3256  36.1339  37.1810  37.8277  38.7949  40.2020  41.0272  41.4340
    43.0630  44.8212  45.0861  46.6140  48.1772  49.3101  49.9394  50.9395
    51.8935  53.3087  54.1202  55.3761  55.7493  56.0383  56.3381  57.4539
    59.2006  60.8428

     occupation numbers 
     0.1111   0.1111   0.1111   0.1111   0.0000   0.0000   0.0000   0.0000
     0.0000   0.0000   0.0000   0.0000   0.0000   0.0000   0.0000   0.0000
     0.0000   0.0000   0.0000   0.0000   0.0000   0.0000   0.0000   0.0000
     0.0000   0.0000   0.0000   0.0000   0.0000   0.0000   0.0000   0.0000
     0.0000   0.0000   0.0000   0.0000   0.0000   0.0000   0.0000   0.0000
     0.0000   0.0000   0.0000   0.0000   0.0000   0.0000   0.0000   0.0000
     0.0000   0.0000

          k =-0.0833-0.9167 0.0833 (   253 PWs)   bands (ev):

    -2.1401  -0.8537   3.0411   3.4591   7.0166   7.6026  15.5261  15.6096
    17.3427  17.4443  18.8985  19.2251  20.6012  20.6131  23.4662  25.3669
    25.4218  25.8253  27.2424  28.0187  28.4203  29.4281  31.0563  32.4211
    36.1919  36.8799  38.6112  39.8415  40.9290  41.2471  42.1183  42.7615
    44.1884  44.6937  45.4015  46.0067  47.7489  48.2609  49.1507  49.9450
    51.8960  52.0618  53.6372  54.7686  55.4518  56.7806  57.2842  59.7019
    60.0008  61.1055

     occupation numbers 
     0.0556   0.0556   0.0556   0.0556   0.0000   0.0000   0.0000   0.0000
     0.0000   0.0000   0.0000   0.0000   0.0000   0.0000   0.0000   0.0000
     0.0000   0.0000   0.0000   0.0000   0.0000   0.0000   0.0000   0.0000
     0.0000   0.0000   0.0000   0.0000   0.0000   0.0000   0.0000   0.0000
     0.0000   0.0000   0.0000   0.0000   0.0000   0.0000   0.0000   0.0000
     0.0000   0.0000   0.0000   0.0000   0.0000   0.0000   0.0000   0.0000
     0.0000   0.0000

          k =-0.2500-0.7500-0.0833 (   255 PWs)   bands (ev):

    -3.1019   0.2874   2.7783   3.6021   8.0058   9.3094  12.1581  14.0139
    16.6754  17.0750  19.0218  19.3930  20.6148  21.3871  23.5593  23.7950
    26.0518  26.3533  27.7793  28.7200  30.2452  30.9301  32.5477  34.5271
    34.7200  35.6451  38.2942  38.6576  38.9188  40.1153  41.1847  43.4908
    44.5484  44.9203  47.0197  47.3545  47.6776  48.3657  49.3540  50.7499
    51.2126  53.0213  53.4715  54.2627  54.9341  55.5088  56.3435  57.2079
    58.5490  59.9974

     occupation numbers 
     0.1111   0.1111   0.1111   0.1111   0.0000   0.0000   0.0000   0.0000
     0.0000   0.0000   0.0000   0.0000   0.0000   0.0000   0.0000   0.0000
     0.0000   0.0000   0.0000   0.0000   0.0000   0.0000   0.0000   0.0000
     0.0000   0.0000   0.0000   0.0000   0.0000   0.0000   0.0000   0.0000
     0.0000   0.0000   0.0000   0.0000   0.0000   0.0000   0.0000   0.0000
     0.0000   0.0000   0.0000   0.0000   0.0000   0.0000   0.0000   0.0000
     0.0000   0.0000

          k =-0.0833-0.5833 0.0833 (   257 PWs)   bands (ev):

    -4.2181   1.9025   3.8891   4.1157   7.4821   9.0748  12.4550  12.6490
    15.7774  16.0524  18.1738  19.6725  20.0276  21.3191  22.4557  23.0599
    24.8655  26.3762  28.4272  31.5828  31.8559  33.2504  33.5097  34.7304
    35.5561  36.0014  36.5853  40.2365  41.3572  42.7086  42.8912  43.6519
    43.7323  43.8017  45.8186  47.0268  47.2568  47.5456  48.1694  50.5061
    50.7654  50.7662  52.3807  53.7999  54.1480  54.4258  55.1916  56.2885
    56.7991  58.7191

     occupation numbers 
     0.0556   0.0556   0.0556   0.0556   0.0000   0.0000   0.0000   0.0000
     0.0000   0.0000   0.0000   0.0000   0.0000   0.0000   0.0000   0.0000
     0.0000   0.0000   0.0000   0.0000   0.0000   0.0000   0.0000   0.0000
     0.0000   0.0000   0.0000   0.0000   0.0000   0.0000   0.0000   0.0000
     0.0000   0.0000   0.0000   0.0000   0.0000   0.0000   0.0000   0.0000
     0.0000   0.0000   0.0000   0.0000   0.0000   0.0000   0.0000   0.0000
     0.0000   0.0000

          k =-0.2500 0.2500 0.2500 (   268 PWs)   bands (ev):

    -4.9571   2.3417   5.5274   5.5274   8.3966   9.8512   9.8512  13.2759
    13.6389  13.6389  15.2113  18.1239  21.1527  21.1527  24.3979  24.4130
    24.4130  26.3228  30.7476  30.7476  33.1862  33.1862  34.5305  35.4690
    36.8925  38.6262  38.6262  40.3295  40.3295  41.3232  41.3232  43.5555
    44.8878  45.1963  45.1963  45.8376  46.3736  47.9541  48.0544  48.0544
    50.7831  50.7831  50.8637  54.0234  54.0234  54.9493  56.0899  56.4432
    56.4432  58.0867

     occupation numbers 
     0.0185   0.0185   0.0185   0.0185   0.0000   0.0000   0.0000   0.0000
     0.0000   0.0000   0.0000   0.0000   0.0000   0.0000   0.0000   0.0000
     0.0000   0.0000   0.0000   0.0000   0.0000   0.0000   0.0000   0.0000
     0.0000   0.0000   0.0000   0.0000   0.0000   0.0000   0.0000   0.0000
     0.0000   0.0000   0.0000   0.0000   0.0000   0.0000   0.0000   0.0000
     0.0000   0.0000   0.0000   0.0000   0.0000   0.0000   0.0000   0.0000
     0.0000   0.0000

          k =-0.4167 0.4167 0.0833 (   261 PWs)   bands (ev):

    -4.2566   1.4217   3.3256   5.3566   9.1450  10.3549  10.5141  12.4877
    12.7746  16.6004  17.5770  18.5939  20.2452  21.7942  23.4363  24.4480
    25.8811  27.7616  28.5999  29.2974  32.0668  32.9638  33.6662  35.2257
    35.6361  36.8508  37.6947  39.0673  40.6986  41.0750  41.4484  43.7741
    43.8097  44.5600  45.1585  45.1650  45.8532  47.3451  48.8817  49.3558
    50.2989  53.1080  53.6192  54.2367  55.2662  55.4192  56.7927  58.4804
    58.6129  60.1330

     occupation numbers 
     0.0556   0.0556   0.0556   0.0556   0.0000   0.0000   0.0000   0.0000
     0.0000   0.0000   0.0000   0.0000   0.0000   0.0000   0.0000   0.0000
     0.0000   0.0000   0.0000   0.0000   0.0000   0.0000   0.0000   0.0000
     0.0000   0.0000   0.0000   0.0000   0.0000   0.0000   0.0000   0.0000
     0.0000   0.0000   0.0000   0.0000   0.0000   0.0000   0.0000   0.0000
     0.0000   0.0000   0.0000   0.0000   0.0000   0.0000   0.0000   0.0000
     0.0000   0.0000

          k = 0.4167-0.4167 0.9167 (   256 PWs)   bands (ev):

    -3.0367  -0.0271   2.1746   4.5447   8.3219  11.7077  11.7997  13.5524
    13.7402  14.3277  18.9919  21.2382  21.6243  22.3848  22.8169  25.0292
    25.1059  27.0213  28.7917  29.5978  30.8264  31.9637  32.3968  33.5548
    34.3217  34.4718  36.0189  36.9597  40.8140  41.0486  42.2183  42.4734
    43.3396  44.5039  44.6906  46.1597  48.2529  48.3790  50.0905  51.5115
    52.5356  53.1571  55.2407  55.8707  56.4401  56.8875  57.0671  57.2181
    58.5874  60.4676

     occupation numbers 
     0.0556   0.0556   0.0556   0.0556   0.0000   0.0000   0.0000   0.0000
     0.0000   0.0000   0.0000   0.0000   0.0000   0.0000   0.0000   0.0000
     0.0000   0.0000   0.0000   0.0000   0.0000   0.0000   0.0000   0.0000
     0.0000   0.0000   0.0000   0.0000   0.0000   0.0000   0.0000   0.0000
     0.0000   0.0000   0.0000   0.0000   0.0000   0.0000   0.0000   0.0000
     0.0000   0.0000   0.0000   0.0000   0.0000   0.0000   0.0000   0.0000
     0.0000   0.0000

          k = 0.2500-0.2500 0.7500 (   254 PWs)   bands (ev):

    -2.9840  -0.1068   2.6801   4.0455   7.7948  10.7739  12.1429  12.3229
    16.5917  17.0631  18.7451  19.1170  19.3715  23.2752  24.3575  25.1588
    25.9258  26.0879  26.4299  29.3385  30.3980  31.8518  32.0255  34.2125
    35.8687  36.0613  36.0964  37.2316  38.7885  41.0986  41.3658  42.9975
    43.4001  44.3865  45.4075  46.7752  48.8286  49.7023  51.5562  51.8036
    52.1890  52.8373  53.4035  53.7678  54.9458  55.6649  56.1997  57.8312
    58.8255  59.3394

     occupation numbers 
     0.0556   0.0556   0.0556   0.0556   0.0000   0.0000   0.0000   0.0000
     0.0000   0.0000   0.0000   0.0000   0.0000   0.0000   0.0000   0.0000
     0.0000   0.0000   0.0000   0.0000   0.0000   0.0000   0.0000   0.0000
     0.0000   0.0000   0.0000   0.0000   0.0000   0.0000   0.0000   0.0000
     0.0000   0.0000   0.0000   0.0000   0.0000   0.0000   0.0000   0.0000
     0.0000   0.0000   0.0000   0.0000   0.0000   0.0000   0.0000   0.0000
     0.0000   0.0000

          k =-0.2500 0.5833 0.2500 (   259 PWs)   bands (ev):

    -3.8186   0.5879   3.8293   4.4312   8.3079  10.6349  11.2750  11.3974
    16.2009  16.7332  17.2275  19.0169  19.6186  21.9206  23.5636  24.6480
    25.4547  27.5597  28.7272  30.0724  30.9672  31.8088  34.0018  34.6649
    36.0403  36.6263  36.6318  37.9718  39.4569  40.9224  41.7096  42.0219
    42.9682  44.3034  45.5317  46.4606  47.2147  49.6368  50.0836  51.3102
    51.8779  52.4252  52.7429  53.5800  53.9435  55.5934  57.0129  57.1720
    57.8753  59.9457

     occupation numbers 
     0.0556   0.0556   0.0556   0.0556   0.0000   0.0000   0.0000   0.0000
     0.0000   0.0000   0.0000   0.0000   0.0000   0.0000   0.0000   0.0000
     0.0000   0.0000   0.0000   0.0000   0.0000   0.0000   0.0000   0.0000
     0.0000   0.0000   0.0000   0.0000   0.0000   0.0000   0.0000   0.0000
     0.0000   0.0000   0.0000   0.0000   0.0000   0.0000   0.0000   0.0000
     0.0000   0.0000   0.0000   0.0000   0.0000   0.0000   0.0000   0.0000
     0.0000   0.0000

          k = 0.5833-0.2500 1.0833 (   257 PWs)   bands (ev):

    -2.7844  -0.1222   2.2744   3.5945   9.5351  10.0976  11.1176  13.9232
    14.5042  16.4471  19.3558  20.2327  21.5860  21.7875  23.6206  25.0727
    25.6722  27.0533  27.5912  28.8271  29.9212  30.2361  32.7428  34.2217
    35.2784  35.5884  36.5696  37.5656  38.5974  39.0833  40.7571  43.1180
    44.3864  46.0323  46.8830  47.4227  48.4893  49.3801  49.8084  51.1564
    51.4023  52.2191  53.4182  53.6805  55.2291  57.0541  57.6349  59.4676
    59.9389  60.6850

     occupation numbers 
     0.1111   0.1111   0.1111   0.1111   0.0000   0.0000   0.0000   0.0000
     0.0000   0.0000   0.0000   0.0000   0.0000   0.0000   0.0000   0.0000
     0.0000   0.0000   0.0000   0.0000   0.0000   0.0000   0.0000   0.0000
     0.0000   0.0000   0.0000   0.0000   0.0000   0.0000   0.0000   0.0000
     0.0000   0.0000   0.0000   0.0000   0.0000   0.0000   0.0000   0.0000
     0.0000   0.0000   0.0000   0.0000   0.0000   0.0000   0.0000   0.0000
     0.0000   0.0000

          k = 0.4167-0.0833 0.9167 (   258 PWs)   bands (ev):

    -1.9259  -0.8562   2.0890   2.8974   9.3259  10.5995  11.4900  12.8832
    15.6896  17.6298  18.8298  20.7683  21.7578  23.5241  23.6982  24.6015
    25.4850  26.1252  26.6813  27.9092  29.2676  31.0816  31.8183  34.0274
    34.4504  35.0402  36.5538  37.2215  38.4569  39.3970  41.8165  43.6240
    44.9587  45.7835  46.5405  47.9023  48.3680  49.5653  49.6900  50.9208
    51.7471  52.9662  53.5075  54.6618  55.9090  56.1781  57.5037  58.3832
    59.3314  60.2158

     occupation numbers 
     0.1111   0.1111   0.1111   0.1111   0.0000   0.0000   0.0000   0.0000
     0.0000   0.0000   0.0000   0.0000   0.0000   0.0000   0.0000   0.0000
     0.0000   0.0000   0.0000   0.0000   0.0000   0.0000   0.0000   0.0000
     0.0000   0.0000   0.0000   0.0000   0.0000   0.0000   0.0000   0.0000
     0.0000   0.0000   0.0000   0.0000   0.0000   0.0000   0.0000   0.0000
     0.0000   0.0000   0.0000   0.0000   0.0000   0.0000   0.0000   0.0000
     0.0000   0.0000

          k =-0.2500-1.0833 0.2500 (   257 PWs)   bands (ev):

    -2.1426  -0.7712   1.9582   3.8445   7.4994  10.4837  13.5279  13.7156
    15.3243  15.4209  20.7573  20.7596  21.0480  22.8774  23.4416  23.7609
    25.7672  26.5143  27.0851  29.3066  29.3301  29.9056  31.0067  33.4243
    35.3995  35.7760  36.1584  37.8749  40.4577  41.0605  41.2185  41.9972
    43.6970  44.7124  45.8843  47.0278  48.4987  49.3621  51.1267  51.3784
    52.7277  53.3284  53.5225  54.2240  55.7287  56.3842  58.0993  58.8488
    59.0136  59.9105

     occupation numbers 
     0.0556   0.0556   0.0556   0.0556   0.0000   0.0000   0.0000   0.0000
     0.0000   0.0000   0.0000   0.0000   0.0000   0.0000   0.0000   0.0000
     0.0000   0.0000   0.0000   0.0000   0.0000   0.0000   0.0000   0.0000
     0.0000   0.0000   0.0000   0.0000   0.0000   0.0000   0.0000   0.0000
     0.0000   0.0000   0.0000   0.0000   0.0000   0.0000   0.0000   0.0000
     0.0000   0.0000   0.0000   0.0000   0.0000   0.0000   0.0000   0.0000
     0.0000   0.0000

          k =-0.4167 0.4167 0.4167 (   263 PWs)   bands (ev):

    -3.7231  -0.2501   5.1339   5.1339   7.9788   9.7308   9.7308  14.0001
    15.7692  15.7692  16.6849  19.3677  19.3677  20.1690  23.7049  26.1628
    26.1628  28.8493  30.1218  30.1218  30.5842  33.3855  33.3855  34.3511
    34.3511  35.6202  37.8275  39.1256  39.1256  39.4519  40.0196  40.0196
    42.4536  43.7541  47.8037  47.8037  47.8401  49.2725  49.3234  49.3234
    49.9705  52.0240  52.0240  56.4315  56.4315  56.7813  58.1482  59.3666
    59.3666  60.9033

     occupation numbers 
     0.0185   0.0185   0.0185   0.0185   0.0000   0.0000   0.0000   0.0000
     0.0000   0.0000   0.0000   0.0000   0.0000   0.0000   0.0000   0.0000
     0.0000   0.0000   0.0000   0.0000   0.0000   0.0000   0.0000   0.0000
     0.0000   0.0000   0.0000   0.0000   0.0000   0.0000   0.0000   0.0000
     0.0000   0.0000   0.0000   0.0000   0.0000   0.0000   0.0000   0.0000
     0.0000   0.0000   0.0000   0.0000   0.0000   0.0000   0.0000   0.0000
     0.0000   0.0000

          k = 0.4167-0.4167 1.2500 (   255 PWs)   bands (ev):

    -3.0884  -0.5430   3.2565   4.6758   8.5069  10.4191  10.7604  14.3595
    14.9086  15.2647  17.5121  20.1201  20.5682  21.0677  24.2184  26.4278
    26.9802  27.0557  28.3967  28.4354  31.5226  32.4004  33.0436  33.8296
    34.0221  35.0269  36.2498  37.6502  38.9836  40.4865  41.3338  41.5865
    42.7411  43.8105  45.4746  46.5981  48.7018  49.8503  50.9692  51.1427
    52.9622  53.4812  54.3510  54.4755  56.4176  56.6560  57.2711  57.5688
    58.1730  60.5056

     occupation numbers 
     0.0556   0.0556   0.0556   0.0556   0.0000   0.0000   0.0000   0.0000
     0.0000   0.0000   0.0000   0.0000   0.0000   0.0000   0.0000   0.0000
     0.0000   0.0000   0.0000   0.0000   0.0000   0.0000   0.0000   0.0000
     0.0000   0.0000   0.0000   0.0000   0.0000   0.0000   0.0000   0.0000
     0.0000   0.0000   0.0000   0.0000   0.0000   0.0000   0.0000   0.0000
     0.0000   0.0000   0.0000   0.0000   0.0000   0.0000   0.0000   0.0000
     0.0000   0.0000

     highest occupied, lowest unoccupied level (ev):     6.1618    7.0166

!    total energy              =     -15.83447383 Ry
     Harris-Foulkes estimate   =     -15.83447383 Ry
     estimated scf accuracy    <          4.7E-11 Ry

     The total energy is the sum of the following terms:

     one-electron contribution =       4.84137943 Ry
     hartree contribution      =       1.06952855 Ry
     xc contribution           =      -4.81740993 Ry
     ewald contribution        =     -16.92797188 Ry

     convergence has been achieved in   5 iterations

     Writing output data file Si.save
 
     init_run     :      0.52s CPU      0.53s WALL (       1 calls)
     electrons    :     14.82s CPU     14.99s WALL (       1 calls)

     Called by init_run:
     wfcinit      :      0.50s CPU      0.51s WALL (       1 calls)
     potinit      :      0.00s CPU      0.00s WALL (       1 calls)

     Called by electrons:
     c_bands      :     13.60s CPU     13.75s WALL (       6 calls)
     sum_band     :      1.21s CPU      1.23s WALL (       6 calls)
     v_of_rho     :      0.00s CPU      0.00s WALL (       6 calls)
     v_h          :      0.00s CPU      0.00s WALL (       6 calls)
     v_xc         :      0.00s CPU      0.00s WALL (       6 calls)
     mix_rho      :      0.00s CPU      0.00s WALL (       6 calls)

     Called by c_bands:
     init_us_2    :      0.02s CPU      0.02s WALL (     364 calls)
     cegterg      :     13.58s CPU     13.70s WALL (     168 calls)

     Called by sum_band:

     Called by *egterg:
     h_psi        :      6.10s CPU      6.15s WALL (     709 calls)
     g_psi        :      0.06s CPU      0.06s WALL (     513 calls)
     cdiaghg      :      5.93s CPU      5.95s WALL (     653 calls)
     cegterg:over :      0.69s CPU      0.73s WALL (     513 calls)
     cegterg:upda :      0.53s CPU      0.51s WALL (     513 calls)
     cegterg:last :      0.29s CPU      0.33s WALL (     196 calls)

     Called by h_psi:
     h_psi:vloc   :      5.98s CPU      6.01s WALL (     709 calls)
     h_psi:vnl    :      0.10s CPU      0.12s WALL (     709 calls)
     add_vuspsi   :      0.04s CPU      0.05s WALL (     709 calls)

     General routines
     calbec       :      0.06s CPU      0.07s WALL (     709 calls)
     fft          :      0.00s CPU      0.00s WALL (      25 calls)
     fftw         :      6.64s CPU      6.68s WALL (   54052 calls)
     davcio       :      0.01s CPU      0.05s WALL (     560 calls)
 
     Parallel routines
     fft_scatter  :      0.28s CPU      0.35s WALL (   54077 calls)
 
     PWSCF        :    15.55s CPU        15.77s WALL

 
   This run was terminated on:  12:12:59  27Mar2013            

=------------------------------------------------------------------------------=
   JOB DONE.
=------------------------------------------------------------------------------=
