  ABINIT 
  
  Give name for formatted input file: 
input/LiF_scf.in
  Give name for formatted output file:
output/LiF_scf.out
  Give root name for generic input files:
io_files/LiF_scf_i
  Give root name for generic output files:
io_files/LiF_scf_o
  Give root name for generic temporary files:
io_files/LiF_scf_tmp

 isfile : WARNING -
  Finds that output file output/LiF_scf.out
 already exists.
 new name assigned:output/LiF_scf.outA


.Version 7.4.1 of ABINIT 
.(MPI version, prepared for a x86_64_linux_gnu4.8 computer) 

.Copyright (C) 1998-2013 ABINIT group . 
 ABINIT comes with ABSOLUTELY NO WARRANTY.
 It is free software, and you are welcome to redistribute it
 under certain conditions (GNU General Public License,
 see ~abinit/COPYING or http://www.gnu.org/copyleft/gpl.txt).

 ABINIT is a project of the Universite Catholique de Louvain,
 Corning Inc. and other collaborators, see ~abinit/doc/developers/contributors.txt .
 Please read ~abinit/doc/users/acknowledgments.html for suggested
 acknowledgments of the ABINIT effort.
 For more information, see http://www.abinit.org .

.Starting date : Mon 27 Jul 2015.
- ( at 12h28 )
  

 ++++++++++++++++++++++++++++++++++++++++++++++++++++++++++++++++++++++++++++++

 === Build Information === 
  Version       : 7.4.1
  Build target  : x86_64_linux_gnu4.8
  Build date    : 20150223

 === Compiler Suite === 
  C compiler       : gnu4.8
  CFLAGS           :  -g -O2 -mtune=native -march=native
  C++ compiler     : gnu4.8
  CXXFLAGS         :  -g -O2 -mtune=native -march=native
  Fortran compiler : gnu4.8
  FCFLAGS          :  -g -ffree-line-length-none
  FC_LDFLAGS       : 

 === Optimizations === 
  Debug level        : basic
  Optimization level : standard
  Architecture       : unknown_unknown

 === MPI === 
  Parallel build : yes
  Parallel I/O   : auto
  Time tracing   : no
  GPU support    : no

 === Connectors / Fallbacks === 
  Connectors on : yes
  Fallbacks on  : yes
  DFT flavor    : none
  FFT flavor    : none
  LINALG flavor : netlib
  MATH flavor   : none
  TIMER flavor  : abinit
  TRIO flavor   : none

 === Experimental features === 
  Bindings            : no
  Exports             : no
  GW double-precision : no

 ++++++++++++++++++++++++++++++++++++++++++++++++++++++++++++++++++++++++++++++


 ++++++++++++++++++++++++++++++++++++++++++++++++++++++++++++++++++++++++++++++
 Default optimizations:
   -O2 -mtune=native -march=native


 ++++++++++++++++++++++++++++++++++++++++++++++++++++++++++++++++++++++++++++++


 ++++++++++++++++++++++++++++++++++++++++++++++++++++++++++++++++++++++++++++++
 CPP options activated during the build:

                    CC_GNU                   CXX_GNU                    FC_GNU

 HAVE_FC_ALLOCATABLE_DT...      HAVE_FC_COMMAND_LINE        HAVE_FC_CONTIGUOUS

           HAVE_FC_CPUTIME              HAVE_FC_EXIT             HAVE_FC_FLUSH

             HAVE_FC_GAMMA            HAVE_FC_GETENV          HAVE_FC_INT_QUAD

             HAVE_FC_IOMSG     HAVE_FC_ISO_C_BINDING        HAVE_FC_LONG_LINES

              HAVE_FC_NULL         HAVE_FC_STREAM_IO          HAVE_FORTRAN2003

               HAVE_LINALG        HAVE_LINALG_SERIAL                  HAVE_MPI

                 HAVE_MPI2               HAVE_MPI_IO HAVE_MPI_TYPE_CREATE_S...

             HAVE_OS_LINUX                HAVE_TIMER         HAVE_TIMER_ABINIT

            HAVE_TIMER_MPI         HAVE_TIMER_SERIAL
 ++++++++++++++++++++++++++++++++++++++++++++++++++++++++++++++++++++++++++++++

- input  file    -> input/LiF_scf.in
- output file    -> output/LiF_scf.outA
- root for input  files -> io_files/LiF_scf_i
- root for output files -> io_files/LiF_scf_o

-instrng :    33 lines of input have been read from file input/LiF_scf.in


 iofn2 : Please give name of formatted atomic psp file
 iofn2 : for atom type   1 , psp file is 03-Li.psp

 iofn2 : Please give name of formatted atomic psp file
 iofn2 : for atom type   2 , psp file is 09-F.psp
  read the values zionpsp=  1.0 , pspcod=   1 , lmax=   1
  read the values zionpsp=  7.0 , pspcod=   1 , lmax=   1

 inpspheads : deduce mpsang  =   2, n1xccc  =2501.

 invars1m : enter jdtset=     0
 invars1 : treat image number     1

 symlatt : the Bravais lattice is cF (face-centered cubic)
  xred   is defined in input file
 ingeo : takes atomic coordinates from input array xred

 symlatt : the Bravais lattice is cF (face-centered cubic)

 symlatt : the Bravais lattice is cF (face-centered cubic)
 symspgr : the symmetry operation no.   1 is the identity
 symspgr : the symmetry operation no.   2 is an inversion
 symaxes : the symmetry operation no.   3 is a 2-axis
 symplanes : the symmetry operation no.   4 is a mirror plane
 symaxes : the symmetry operation no.   5 is a 2-axis
 symplanes : the symmetry operation no.   6 is a mirror plane
 symaxes : the symmetry operation no.   7 is a 2-axis
 symplanes : the symmetry operation no.   8 is a mirror plane
 symplanes : the symmetry operation no.   9 is a mirror plane
 symaxes : the symmetry operation no.  10 is a 2-axis
 symspgr : the symmetry operation no.  11 is a -4 axis
 symaxes : the symmetry operation no.  12 is a 4-axis
 symplanes : the symmetry operation no.  13 is a mirror plane
 symaxes : the symmetry operation no.  14 is a 2-axis
 symspgr : the symmetry operation no.  15 is a -4 axis
 symaxes : the symmetry operation no.  16 is a 4-axis
 symaxes : the symmetry operation no.  17 is a 3-axis
 symspgr : the symmetry operation no.  18 is a -3 axis
 symaxes : the symmetry operation no.  19 is a 3-axis
 symspgr : the symmetry operation no.  20 is a -3 axis
 symaxes : the symmetry operation no.  21 is a 3-axis
 symspgr : the symmetry operation no.  22 is a -3 axis
 symaxes : the symmetry operation no.  23 is a 3-axis
 symspgr : the symmetry operation no.  24 is a -3 axis
 symplanes : the symmetry operation no.  25 is a mirror plane
 symaxes : the symmetry operation no.  26 is a 2-axis
 symspgr : the symmetry operation no.  27 is a -4 axis
 symaxes : the symmetry operation no.  28 is a 4-axis
 symspgr : the symmetry operation no.  29 is a -4 axis
 symaxes : the symmetry operation no.  30 is a 4-axis
 symplanes : the symmetry operation no.  31 is a mirror plane
 symaxes : the symmetry operation no.  32 is a 2-axis
 symaxes : the symmetry operation no.  33 is a 3-axis
 symspgr : the symmetry operation no.  34 is a -3 axis
 symaxes : the symmetry operation no.  35 is a 3-axis
 symspgr : the symmetry operation no.  36 is a -3 axis
 symaxes : the symmetry operation no.  37 is a 3-axis
 symspgr : the symmetry operation no.  38 is a -3 axis
 symaxes : the symmetry operation no.  39 is a 3-axis
 symspgr : the symmetry operation no.  40 is a -3 axis
 symplanes : the symmetry operation no.  41 is a mirror plane
 symaxes : the symmetry operation no.  42 is a 2-axis
 symplanes : the symmetry operation no.  43 is a mirror plane
 symaxes : the symmetry operation no.  44 is a 2-axis
 symspgr : the symmetry operation no.  45 is a -4 axis
 symaxes : the symmetry operation no.  46 is a 4-axis
 symspgr : the symmetry operation no.  47 is a -4 axis
 symaxes : the symmetry operation no.  48 is a 4-axis
 symspgr : the symmetry operation no.  49 is a pure translation
 symspgr : the symmetry operation no.  50 is an inversion
 symaxes : the symmetry operation no.  51 is a 2_1-axis
 symplanes : the symmetry operation no.  52 is a primary n plane
 symaxes : the symmetry operation no.  53 is a 2_1-axis
 symplanes : the symmetry operation no.  54 is a primary n plane
 symaxes : the symmetry operation no.  55 is a 2-axis
 symplanes : the symmetry operation no.  56 is a primary n plane
 symplanes : the symmetry operation no.  57 is a tertiary m plane
 symaxes : the symmetry operation no.  58 is a 2_1-axis
 symspgr : the symmetry operation no.  59 is a -4 axis
 symaxes : the symmetry operation no.  60 is a 4_2-axis
 symplanes : the symmetry operation no.  61 is a tertiary m plane
 symaxes : the symmetry operation no.  62 is a 2_1-axis
 symspgr : the symmetry operation no.  63 is a -4 axis
 symaxes : the symmetry operation no.  64 is a 4_2-axis
 symaxes : the symmetry operation no.  65 is a 3, 3_1 or 3_2 axis
 symspgr : the symmetry operation no.  66 is a -3 axis
 symaxes : the symmetry operation no.  67 is a 3-axis
 symspgr : the symmetry operation no.  68 is a -3 axis
 symaxes : the symmetry operation no.  69 is a 3, 3_1 or 3_2 axis
 symspgr : the symmetry operation no.  70 is a -3 axis
 symaxes : the symmetry operation no.  71 is a 3-axis
 symspgr : the symmetry operation no.  72 is a -3 axis
 symplanes : the symmetry operation no.  73 is a tertiary m plane
 symaxes : the symmetry operation no.  74 is a 2-axis
 symspgr : the symmetry operation no.  75 is a -4 axis
 symaxes : the symmetry operation no.  76 is a 4-axis
 symspgr : the symmetry operation no.  77 is a -4 axis
 symaxes : the symmetry operation no.  78 is a 4-axis
 symplanes : the symmetry operation no.  79 is a mirror plane
 symaxes : the symmetry operation no.  80 is a 2-axis
 symaxes : the symmetry operation no.  81 is a 3, 3_1 or 3_2 axis
 symspgr : the symmetry operation no.  82 is a -3 axis
 symaxes : the symmetry operation no.  83 is a 3, 3_1 or 3_2 axis
 symspgr : the symmetry operation no.  84 is a -3 axis
 symaxes : the symmetry operation no.  85 is a 3-axis
 symspgr : the symmetry operation no.  86 is a -3 axis
 symaxes : the symmetry operation no.  87 is a 3-axis
 symspgr : the symmetry operation no.  88 is a -3 axis
 symplanes : the symmetry operation no.  89 is a tertiary m plane
 symaxes : the symmetry operation no.  90 is a 2_1-axis
 symplanes : the symmetry operation no.  91 is a tertiary m plane
 symaxes : the symmetry operation no.  92 is a 2_1-axis
 symspgr : the symmetry operation no.  93 is a -4 axis
 symaxes : the symmetry operation no.  94 is a 4_2-axis
 symspgr : the symmetry operation no.  95 is a -4 axis
 symaxes : the symmetry operation no.  96 is a 4_2-axis
 symspgr : the symmetry operation no.  97 is a pure translation
 symspgr : the symmetry operation no.  98 is an inversion
 symaxes : the symmetry operation no.  99 is a 2-axis
 symplanes : the symmetry operation no. 100 is a primary n plane
 symaxes : the symmetry operation no. 101 is a 2_1-axis
 symplanes : the symmetry operation no. 102 is a primary n plane
 symaxes : the symmetry operation no. 103 is a 2_1-axis
 symplanes : the symmetry operation no. 104 is a primary n plane
 symplanes : the symmetry operation no. 105 is a tertiary m plane
 symaxes : the symmetry operation no. 106 is a 2_1-axis
 symspgr : the symmetry operation no. 107 is a -4 axis
 symaxes : the symmetry operation no. 108 is a 4_2-axis
 symplanes : the symmetry operation no. 109 is a tertiary m plane
 symaxes : the symmetry operation no. 110 is a 2_1-axis
 symspgr : the symmetry operation no. 111 is a -4 axis
 symaxes : the symmetry operation no. 112 is a 4_2-axis
 symaxes : the symmetry operation no. 113 is a 3, 3_1 or 3_2 axis
 symspgr : the symmetry operation no. 114 is a -3 axis
 symaxes : the symmetry operation no. 115 is a 3-axis
 symspgr : the symmetry operation no. 116 is a -3 axis
 symaxes : the symmetry operation no. 117 is a 3-axis
 symspgr : the symmetry operation no. 118 is a -3 axis
 symaxes : the symmetry operation no. 119 is a 3, 3_1 or 3_2 axis
 symspgr : the symmetry operation no. 120 is a -3 axis
 symplanes : the symmetry operation no. 121 is a tertiary m plane
 symaxes : the symmetry operation no. 122 is a 2_1-axis
 symspgr : the symmetry operation no. 123 is a -4 axis
 symaxes : the symmetry operation no. 124 is a 4_2-axis
 symspgr : the symmetry operation no. 125 is a -4 axis
 symaxes : the symmetry operation no. 126 is a 4_2-axis
 symplanes : the symmetry operation no. 127 is a tertiary m plane
 symaxes : the symmetry operation no. 128 is a 2_1-axis
 symaxes : the symmetry operation no. 129 is a 3, 3_1 or 3_2 axis
 symspgr : the symmetry operation no. 130 is a -3 axis
 symaxes : the symmetry operation no. 131 is a 3-axis
 symspgr : the symmetry operation no. 132 is a -3 axis
 symaxes : the symmetry operation no. 133 is a 3, 3_1 or 3_2 axis
 symspgr : the symmetry operation no. 134 is a -3 axis
 symaxes : the symmetry operation no. 135 is a 3-axis
 symspgr : the symmetry operation no. 136 is a -3 axis
 symplanes : the symmetry operation no. 137 is a tertiary m plane
 symaxes : the symmetry operation no. 138 is a 2-axis
 symplanes : the symmetry operation no. 139 is a mirror plane
 symaxes : the symmetry operation no. 140 is a 2-axis
 symspgr : the symmetry operation no. 141 is a -4 axis
 symaxes : the symmetry operation no. 142 is a 4-axis
 symspgr : the symmetry operation no. 143 is a -4 axis
 symaxes : the symmetry operation no. 144 is a 4-axis
 symspgr : the symmetry operation no. 145 is a pure translation
 symspgr : the symmetry operation no. 146 is an inversion
 symaxes : the symmetry operation no. 147 is a 2_1-axis
 symplanes : the symmetry operation no. 148 is a primary n plane
 symaxes : the symmetry operation no. 149 is a 2-axis
 symplanes : the symmetry operation no. 150 is a primary n plane
 symaxes : the symmetry operation no. 151 is a 2_1-axis
 symplanes : the symmetry operation no. 152 is a primary n plane
 symplanes : the symmetry operation no. 153 is a tertiary m plane
 symaxes : the symmetry operation no. 154 is a 2-axis
 symspgr : the symmetry operation no. 155 is a -4 axis
 symaxes : the symmetry operation no. 156 is a 4-axis
 symplanes : the symmetry operation no. 157 is a mirror plane
 symaxes : the symmetry operation no. 158 is a 2-axis
 symspgr : the symmetry operation no. 159 is a -4 axis
 symaxes : the symmetry operation no. 160 is a 4-axis
 symaxes : the symmetry operation no. 161 is a 3, 3_1 or 3_2 axis
 symspgr : the symmetry operation no. 162 is a -3 axis
 symaxes : the symmetry operation no. 163 is a 3, 3_1 or 3_2 axis
 symspgr : the symmetry operation no. 164 is a -3 axis
 symaxes : the symmetry operation no. 165 is a 3-axis
 symspgr : the symmetry operation no. 166 is a -3 axis
 symaxes : the symmetry operation no. 167 is a 3-axis
 symspgr : the symmetry operation no. 168 is a -3 axis
 symplanes : the symmetry operation no. 169 is a tertiary m plane
 symaxes : the symmetry operation no. 170 is a 2_1-axis
 symspgr : the symmetry operation no. 171 is a -4 axis
 symaxes : the symmetry operation no. 172 is a 4_2-axis
 symspgr : the symmetry operation no. 173 is a -4 axis
 symaxes : the symmetry operation no. 174 is a 4_2-axis
 symplanes : the symmetry operation no. 175 is a tertiary m plane
 symaxes : the symmetry operation no. 176 is a 2_1-axis
 symaxes : the symmetry operation no. 177 is a 3, 3_1 or 3_2 axis
 symspgr : the symmetry operation no. 178 is a -3 axis
 symaxes : the symmetry operation no. 179 is a 3-axis
 symspgr : the symmetry operation no. 180 is a -3 axis
 symaxes : the symmetry operation no. 181 is a 3-axis
 symspgr : the symmetry operation no. 182 is a -3 axis
 symaxes : the symmetry operation no. 183 is a 3, 3_1 or 3_2 axis
 symspgr : the symmetry operation no. 184 is a -3 axis
 symplanes : the symmetry operation no. 185 is a tertiary m plane
 symaxes : the symmetry operation no. 186 is a 2_1-axis
 symplanes : the symmetry operation no. 187 is a tertiary m plane
 symaxes : the symmetry operation no. 188 is a 2_1-axis
 symspgr : the symmetry operation no. 189 is a -4 axis
 symaxes : the symmetry operation no. 190 is a 4_2-axis
 symspgr : the symmetry operation no. 191 is a -4 axis
 symaxes : the symmetry operation no. 192 is a 4_2-axis
 symspgr : spgroup= 225  Fm -3 m   (=Oh^5)
 getkgrid : length of smallest supercell vector (bohr)=    2.178872E+01
       Simple Lattice Grid
 symkpt : found identity, with number  1
 getkgrid : length of smallest supercell vector (bohr)=    2.178872E+01
       Simple Lattice Grid
 symkpt : found identity, with number  1
  dtset%nelect=   8.0000000000000000     
 chkneu : initialized the occupation numbers for occopt=    1
    spin-unpolarized case :
  2.00  2.00  2.00  2.00  0.00  0.00  0.00  0.00  0.00  0.00
  mpi_setup : enter 
 mpi_setup1: mkmem  undefined in the input file. Use default mkmem  = nkpt
 mpi_setup1: With nkpt_me=   10 and mkmem  =    10, ground state wf handled in core.
 mpi_setup1: mkqmem undefined in the input file. Use default mkqmem = nkpt
 mpi_setup1: With nkpt_me=   10 and mkqmem =    10, ground state wf handled in core.
 mpi_setup1: mk1mem undefined in the input file. Use default mk1mem = nkpt
 mpi_setup1: With nkpt_me=   10 and mk1mem =    10, ground state wf handled in core.

 getng.F90:200:WARNING
   The second and third dimension of the FFT grid,    0    0  were imposed to be multiple of the number of processors for the FFT,    1
 For input ecut=  4.000000E+01 best grid ngfft=      32      32      32
       max ecut=  4.257614E+01

 ==== FFT mesh ====
  FFT mesh divisions ........................    32   32   32
  Augmented FFT divisions ...................    33   33   32
  FFT algorithm .............................   112
  FFT cache size ............................    16
 getmpw: optimal value of mpw=    1392

 Symmetries : space group Fm -3 m (#225); Bravais cF (face-center cubic)

 getdim_nloc : deduce lmnmax  =   1, lnmax  =   1,
                      lmnmaxso=   1, lnmaxso=   1.
 setmqgrid : COMMENT -
  The number of points "mqgrid" in reciprocal space used for the
  description of the pseudopotentials has been set automatically
  by abinit to :     3001.
 memory : analysis of memory needs
================================================================================
 Values of the parameters that define the memory need of the present run
   intxc =         0  ionmov =         0    iscf =         3 xclevel =         1
  lmnmax =         1   lnmax =         1   mband =        10  mffmem =         1
P  mgfft =        32   mkmem =        10 mpssoang=         2     mpw =      1392
  mqgrid =      3001   natom =         2    nfft =     32768    nkpt =        10
  nloalg =         4  nspden =         1 nspinor =         1  nsppol =         1
    nsym =        48  n1xccc =      2501  ntypat =         2  occopt =         1
================================================================================
P This job should need less than                       9.499 Mbytes of memory.
  Rough estimation (10% accuracy) of disk space for files :
_ WF disk file :      2.126 Mbytes ; DEN or POT disk file :      0.252 Mbytes.
================================================================================

 Biggest array : cg(disk), with      2.1260 MBytes.
 memana : allocated an array of      2.126 Mbytes, for testing purposes.
 memana : allocated       9.499 Mbytes, for testing purposes.
 The job will continue.
--------------------------------------------------------------------------------
------------- Echo of variables that govern the present computation ------------
--------------------------------------------------------------------------------
-
- outvars: echo of selected default values                                      
-   accesswff0 =  0 , fftalg0 =112 , wfoptalg0 =  0
-
- outvars: echo of global parameters not present in the input file              
-  max_nthreads =    0
-
 -outvars: echo values of preprocessed input variables --------
            acell      7.7034756000E+00  7.7034756000E+00  7.7034756000E+00 Bohr
              amu      6.94100000E+00  1.89984032E+01
      chksymbreak           0
             ecut      4.00000000E+01 Hartree
             iscf           3
              kpt      1.25000000E-01  1.25000000E-01  1.25000000E-01
                       3.75000000E-01  1.25000000E-01  1.25000000E-01
                      -3.75000000E-01  1.25000000E-01  1.25000000E-01
                      -1.25000000E-01  1.25000000E-01  1.25000000E-01
                       3.75000000E-01  3.75000000E-01  1.25000000E-01
                      -3.75000000E-01  3.75000000E-01  1.25000000E-01
                      -1.25000000E-01  3.75000000E-01  1.25000000E-01
                      -3.75000000E-01 -3.75000000E-01  1.25000000E-01
                       3.75000000E-01  3.75000000E-01  3.75000000E-01
                      -3.75000000E-01  3.75000000E-01  3.75000000E-01
         kptrlatt        4    0    0      0    4    0      0    0    4
          kptrlen      2.17887193E+01
P           mkmem          10
            natom           2
            nband          10
            ngfft          32      32      32
             nkpt          10
            nstep        3000
             nsym          48
           ntypat           2
              occ      2.000000  2.000000  2.000000  2.000000  0.000000  0.000000
                       0.000000  0.000000  0.000000  0.000000
            rprim      0.0000000000E+00  5.0000000000E-01  5.0000000000E-01
                       5.0000000000E-01  0.0000000000E+00  5.0000000000E-01
                       5.0000000000E-01  5.0000000000E-01  0.0000000000E+00
           shiftk      5.00000000E-01  5.00000000E-01  5.00000000E-01
          spgroup         225
           symrel      1  0  0   0  1  0   0  0  1      -1  0  0   0 -1  0   0  0 -1
                       0 -1  1   0 -1  0   1 -1  0       0  1 -1   0  1  0  -1  1  0
                      -1  0  0  -1  0  1  -1  1  0       1  0  0   1  0 -1   1 -1  0
                       0  1 -1   1  0 -1   0  0 -1       0 -1  1  -1  0  1   0  0  1
                      -1  0  0  -1  1  0  -1  0  1       1  0  0   1 -1  0   1  0 -1
                       0 -1  1   1 -1  0   0 -1  0       0  1 -1  -1  1  0   0  1  0
                       1  0  0   0  0  1   0  1  0      -1  0  0   0  0 -1   0 -1  0
                       0  1 -1   0  0 -1   1  0 -1       0 -1  1   0  0  1  -1  0  1
                      -1  0  1  -1  1  0  -1  0  0       1  0 -1   1 -1  0   1  0  0
                       0 -1  0   1 -1  0   0 -1  1       0  1  0  -1  1  0   0  1 -1
                       1  0 -1   0  0 -1   0  1 -1      -1  0  1   0  0  1   0 -1  1
                       0  1  0   0  0  1   1  0  0       0 -1  0   0  0 -1  -1  0  0
                       1  0 -1   0  1 -1   0  0 -1      -1  0  1   0 -1  1   0  0  1
                       0 -1  0   0 -1  1   1 -1  0       0  1  0   0  1 -1  -1  1  0
                      -1  0  1  -1  0  0  -1  1  0       1  0 -1   1  0  0   1 -1  0
                       0  1  0   1  0  0   0  0  1       0 -1  0  -1  0  0   0  0 -1
                       0  0 -1   0  1 -1   1  0 -1       0  0  1   0 -1  1  -1  0  1
                       1 -1  0   0 -1  1   0 -1  0      -1  1  0   0  1 -1   0  1  0
                       0  0  1   1  0  0   0  1  0       0  0 -1  -1  0  0   0 -1  0
                      -1  1  0  -1  0  0  -1  0  1       1 -1  0   1  0  0   1  0 -1
                       0  0  1   0  1  0   1  0  0       0  0 -1   0 -1  0  -1  0  0
                       1 -1  0   0 -1  0   0 -1  1      -1  1  0   0  1  0   0  1 -1
                       0  0 -1   1  0 -1   0  1 -1       0  0  1  -1  0  1   0 -1  1
                      -1  1  0  -1  0  1  -1  0  0       1 -1  0   1  0 -1   1  0  0
           tolwfr      1.00000000E-16
            typat      1  2
              wtk        0.03125    0.09375    0.09375    0.09375    0.09375    0.18750
                         0.18750    0.09375    0.03125    0.09375
           xangst      0.0000000000E+00  0.0000000000E+00  0.0000000000E+00
                      -2.0382518572E+00  0.0000000000E+00  0.0000000000E+00
            xcart      0.0000000000E+00  0.0000000000E+00  0.0000000000E+00
                      -3.8517378000E+00  0.0000000000E+00  0.0000000000E+00
             xred      0.0000000000E+00  0.0000000000E+00  0.0000000000E+00
                       5.0000000000E-01 -5.0000000000E-01 -5.0000000000E-01
            znucl        3.00000    9.00000

================================================================================

 chkinp: machine precision is   2.2204460492503131E-16

 chkinp: Checking input parameters for consistency.
 DATA TYPE INFORMATION: 
 REAL:      Data type name: REAL(DP) 
            Kind value:      8
            Precision:      15
            Smallest nonnegligible quantity relative to 1:  0.22204460E-15
            Smallest positive number:                       0.22250739-307
            Largest representable number:                   0.17976931+309
 INTEGER:   Data type name: INTEGER(default) 
            Kind value: 4
            Bit size:   32
            Largest representable number: 2147483647
 LOGICAL:   Data type name: LOGICAL 
            Kind value: 4
 CHARACTER: Data type name: CHARACTER             Kind value: 1
 ==== OpenMP parallelism is OFF ====
 
  ==== Using MPI-2 specifications ==== 
  MPI-IO support is ON
  xmpi_tag_ub ................   2147483647
  xmpi_bsize_ch ..............            1
  xmpi_bsize_int .............            4
  xmpi_bsize_sp ..............            4
  xmpi_bsize_dp ..............            8
  xmpi_bsize_spc .............            8
  xmpi_bsize_dpc .............           16
  xmpio_bsize_frm ............            4
  xmpi_address_kind ..........            8
  xmpi_offset_kind ...........            8
  MPI_WTICK ..................    9.9999999999999995E-007

================================================================================
== DATASET  1 ==================================================================
-   nproc =    1

 setmqgrid : COMMENT -
  The number of points "mqgrid" in reciprocal space used for the
  description of the pseudopotentials has been set automatically
  by abinit to :     3001.

 getdim_nloc : deduce lmnmax  =   1, lnmax  =   1,
                      lmnmaxso=   1, lnmaxso=   1.
 Exchange-correlation functional for the present dataset will be:
  LDA: new Teter (4/93) with spin-polarized option - ixc=1
 Citation for XC functional:
  S. Goedecker, M. Teter, J. Huetter, PRB 54, 1703 (1996)

 Unit cell volume ucvol=  1.1428787E+02 bohr^3
 Angles (23,13,12)=  6.00000000E+01  6.00000000E+01  6.00000000E+01 degrees

 getcut: wavevector=  0.0000  0.0000  0.0000  ngfft=  32  32  32
         ecut(hartree)=     40.000   => boxcut(ratio)=   2.06340
- pspini: atom type   1  psp file is 03-Li.psp
- pspatm: opening atomic psp file    03-Li.psp
-  Troullier-Martins psp for element  Li        Thu Oct 27 17:29:06 EDT 1994
-  3.00000   1.00000    940714                znucl, zion, pspdat
    1    1    1    1      2001   0.00000      pspcod,pspxc,lmax,lloc,mmax,r2well
    0   2.534   6.726    1   2.4315963        l,e99.0,e99.9,nproj,rcpsp
   0.00000000   0.00000000   0.00000000   0.00000000     rms, ekb1, ekb2, epsatm
    1   3.283   5.836    0   2.4315963        l,e99.0,e99.9,nproj,rcpsp
   0.00000000   0.00000000   0.00000000   0.00000000     rms, ekb1, ekb2, epsatm
    2.44451305764117    0.01373030920382    0.17502673260160   rchrg,fchrg,qchrg
 pspatm: epsatm=   -1.77437869
         --- l  ekb(1:nproj) -->
             0    1.242797
 pspatm: atomic psp has been read  and splines computed

- pspini: atom type   2  psp file is 09-F.psp
- pspatm: opening atomic psp file    09-F.psp
-  Troullier-Martins psp for element  F         Thu Oct 27 17:30:08 EDT 1994
-  9.00000   7.00000    940714                znucl, zion, pspdat
    1    1    1    1      2001   0.00000      pspcod,pspxc,lmax,lloc,mmax,r2well
    0   6.771  17.439    1   1.3876018        l,e99.0,e99.9,nproj,rcpsp
   0.00000000   0.00000000   0.00000000   0.00000000     rms, ekb1, ekb2, epsatm
    1  24.372  32.350    0   1.3876018        l,e99.0,e99.9,nproj,rcpsp
   0.00000000   0.00000000   0.00000000   0.00000000     rms, ekb1, ekb2, epsatm
    0.49406148701180    6.36128955091623    0.66947621353748   rchrg,fchrg,qchrg
 pspatm: epsatm=    1.80528525
         --- l  ekb(1:nproj) -->
             0    6.310228
 pspatm: atomic psp has been read  and splines computed

   2.47252491E-01                                ecore*ucvol(ha*bohr**3)
   1  1  1  1  1  1  1  1  1  1  1  1  1  1  1  1  1  1  1  1  1  1  1  1
   1  1  1  1  1  1  1  1  1  1  1  1  1  1  1  1  1  1  1  1  1  1  1  1
   2  2  2  2  2  2  2  2  2  2  2  2  2  2  2  2  2  2  2  2  2  2  2  2
   2  2  2  2  2  2  2  2  2  2  2  2  2  2  2  2  2  2  2  2  2  2  2  2
 wfconv:    10 bands initialized randomly with npw=  1387, for ikpt=     1
 wfconv:    10 bands initialized randomly with npw=  1376, for ikpt=     2
 wfconv:    10 bands initialized randomly with npw=  1389, for ikpt=     3
 wfconv:    10 bands initialized randomly with npw=  1380, for ikpt=     4
 wfconv:    10 bands initialized randomly with npw=  1385, for ikpt=     5
 wfconv:    10 bands initialized randomly with npw=  1386, for ikpt=     6
 wfconv:    10 bands initialized randomly with npw=  1380, for ikpt=     7
 wfconv:    10 bands initialized randomly with npw=  1370, for ikpt=     8
 wfconv:    10 bands initialized randomly with npw=  1392, for ikpt=     9
 wfconv:    10 bands initialized randomly with npw=  1377, for ikpt=    10

_setup2: Arith. and geom. avg. npw (full set) are    1381.438    1381.426
 initro : for itypat=  1, take decay length=      1.8000,
 initro : indeed, coreel=      2.0000, nval=  1 and densty=  0.0000E+00.
 initro : for itypat=  2, take decay length=      0.4000,
 initro : indeed, coreel=      2.0000, nval=  7 and densty=  0.0000E+00.

================================================================================

 getcut: wavevector=  0.0000  0.0000  0.0000  ngfft=  32  32  32
         ecut(hartree)=     40.000   => boxcut(ratio)=   2.06340

 ewald : nr and ng are    4 and   11

 ITER STEP NUMBER     1
 vtorho : nnsclo_now=  2, note that nnsclo,dbl_nnsclo,istep=  0 0  1
 Total charge density [el/Bohr^3]
,     Maximum=    1.0229E+00  at reduced coord.    0.4688    0.5000    0.5938
,     Minimum=    1.6308E-03  at reduced coord.    0.0000    0.0000    0.0000
,  Integrated=    8.0000E+00
 ETOT  1  -24.363708714801    -2.436E+01 3.319E-02 2.663E+03
 scprqt: <Vxc>= -4.0950331E-01 hartree

Simple mixing update:
  residual square of the potential :   1465.5573200086403

 ITER STEP NUMBER     2
 vtorho : nnsclo_now=  2, note that nnsclo,dbl_nnsclo,istep=  0 0  2
 Total charge density [el/Bohr^3]
,     Maximum=    2.1447E+00  at reduced coord.    0.4688    0.5000    0.5938
,     Minimum=    3.7246E-05  at reduced coord.    0.0000    0.0000    0.0000
,  Integrated=    8.0000E+00
 ETOT  2  -24.476967993467    -1.133E-01 1.362E-03 2.451E+03
 scprqt: <Vxc>= -3.1158044E-01 hartree

Anderson update:
  residual square of the potential:    1407.3790893591477
  mixing of old trial potential    :  0.49490682205380820
  predicted best residual square on the line:    8.4730525208809695

 ITER STEP NUMBER     3
 vtorho : nnsclo_now=  1, note that nnsclo,dbl_nnsclo,istep=  0 0  3
 Total charge density [el/Bohr^3]
,     Maximum=    1.6022E+00  at reduced coord.    0.4688    0.5000    0.5938
,     Minimum=    3.4067E-04  at reduced coord.    0.0000    0.0000    0.0000
,  Integrated=    8.0000E+00
 ETOT  3  -25.198702814061    -7.217E-01 2.447E-02 3.216E+01
 scprqt: <Vxc>= -3.5825282E-01 hartree

Anderson update:
  residual square of the potential:    17.100977122511651
  mixing of old trial potential    : -0.11259989378122329
  predicted best residual square on the line:    2.7139608651203808

 ITER STEP NUMBER     4
 vtorho : nnsclo_now=  1, note that nnsclo,dbl_nnsclo,istep=  0 0  4
 Total charge density [el/Bohr^3]
,     Maximum=    1.5539E+00  at reduced coord.    0.4688    0.5000    0.5938
,     Minimum=    3.8074E-04  at reduced coord.    0.0000    0.0000    0.0000
,  Integrated=    8.0000E+00
 ETOT  4  -25.206924230805    -8.221E-03 2.907E-03 3.138E-02
 scprqt: <Vxc>= -3.6384673E-01 hartree

Anderson update:
  residual square of the potential:    1.9450371184588765E-002
  mixing of old trial potential    :   2.8371038742482223E-002
  predicted best residual square on the line:    4.8740913422965684E-003

 ITER STEP NUMBER     5
 vtorho : nnsclo_now=  1, note that nnsclo,dbl_nnsclo,istep=  0 0  5
 Total charge density [el/Bohr^3]
,     Maximum=    1.5546E+00  at reduced coord.    0.4688    0.5000    0.5938
,     Minimum=    3.7824E-04  at reduced coord.    0.0000    0.0000    0.0000
,  Integrated=    8.0000E+00
 ETOT  5  -25.206932754913    -8.524E-06 3.985E-04 1.575E-04
 scprqt: <Vxc>= -3.6369117E-01 hartree

Anderson update:
  residual square of the potential:    1.1777515788734040E-004
  mixing of old trial potential    :  -4.0246737214544463E-002
  predicted best residual square on the line:    8.8793089037033621E-005

 ITER STEP NUMBER     6
 vtorho : nnsclo_now=  1, note that nnsclo,dbl_nnsclo,istep=  0 0  6
 Total charge density [el/Bohr^3]
,     Maximum=    1.5549E+00  at reduced coord.    0.4688    0.5000    0.5938
,     Minimum=    3.7796E-04  at reduced coord.    0.0000    0.0000    0.0000
,  Integrated=    8.0000E+00
 ETOT  6  -25.206932772132    -1.722E-08 2.670E-04 1.537E-04
 scprqt: <Vxc>= -3.6366954E-01 hartree

Anderson update:
  residual square of the potential:    8.5682195095651938E-005
  mixing of old trial potential    :  0.45169242392709391
  predicted best residual square on the line:    1.7910213661765712E-005

 ITER STEP NUMBER     7
 vtorho : nnsclo_now=  1, note that nnsclo,dbl_nnsclo,istep=  0 0  7
 Total charge density [el/Bohr^3]
,     Maximum=    1.5547E+00  at reduced coord.    0.4688    0.5000    0.5938
,     Minimum=    3.7812E-04  at reduced coord.    0.0000    0.0000    0.0000
,  Integrated=    8.0000E+00
 ETOT  7  -25.206932819148    -4.702E-08 9.620E-04 9.219E-07
 scprqt: <Vxc>= -3.6368156E-01 hartree

Anderson update:
  residual square of the potential:    5.5251685138975336E-007
  mixing of old trial potential    :  -3.5635436584113916E-002
  predicted best residual square on the line:    4.5160414291862940E-007

 ITER STEP NUMBER     8
 vtorho : nnsclo_now=  1, note that nnsclo,dbl_nnsclo,istep=  0 0  8
 Total charge density [el/Bohr^3]
,     Maximum=    1.5547E+00  at reduced coord.    0.4688    0.5000    0.5938
,     Minimum=    3.7812E-04  at reduced coord.    0.0000    0.0000    0.0000
,  Integrated=    8.0000E+00
 ETOT  8  -25.206932819169    -2.140E-11 2.132E-04 1.572E-07
 scprqt: <Vxc>= -3.6368167E-01 hartree

Anderson update:
  residual square of the potential:    8.7010503824632295E-008
  mixing of old trial potential    : -0.26100907257928690
  predicted best residual square on the line:    6.6174377378405866E-008

 ITER STEP NUMBER     9
 vtorho : nnsclo_now=  1, note that nnsclo,dbl_nnsclo,istep=  0 0  9
 Total charge density [el/Bohr^3]
,     Maximum=    1.5547E+00  at reduced coord.    0.4688    0.5000    0.5938
,     Minimum=    3.7812E-04  at reduced coord.    0.0000    0.0000    0.0000
,  Integrated=    8.0000E+00
 ETOT  9  -25.206932819152     1.779E-11 6.424E-04 1.672E-07
 scprqt: <Vxc>= -3.6368245E-01 hartree

Anderson update:
  residual square of the potential:    9.4508139701208340E-008
  mixing of old trial potential    :  0.51104796092773952
  predicted best residual square on the line:    5.8873655867588294E-009

 ITER STEP NUMBER    10
 vtorho : nnsclo_now=  1, note that nnsclo,dbl_nnsclo,istep=  0 0 10
 Total charge density [el/Bohr^3]
,     Maximum=    1.5547E+00  at reduced coord.    0.4688    0.5000    0.5938
,     Minimum=    3.7812E-04  at reduced coord.    0.0000    0.0000    0.0000
,  Integrated=    8.0000E+00
 ETOT 10  -25.206932819204    -5.216E-11 8.598E-05 2.606E-09
 scprqt: <Vxc>= -3.6368199E-01 hartree

Anderson update:
  residual square of the potential:    1.4807107289859530E-009
  mixing of old trial potential    :  0.10135344059205775
  predicted best residual square on the line:    2.8212253769609685E-010

 ITER STEP NUMBER    11
 vtorho : nnsclo_now=  1, note that nnsclo,dbl_nnsclo,istep=  0 0 11
 Total charge density [el/Bohr^3]
,     Maximum=    1.5547E+00  at reduced coord.    0.4688    0.5000    0.5938
,     Minimum=    3.7812E-04  at reduced coord.    0.0000    0.0000    0.0000
,  Integrated=    8.0000E+00
 ETOT 11  -25.206932819205    -1.002E-12 2.223E-04 3.626E-11
 scprqt: <Vxc>= -3.6368204E-01 hartree

Anderson update:
  residual square of the potential:    2.0743280293552781E-011
  mixing of old trial potential    :  -8.2165934809265234E-002
  predicted best residual square on the line:    1.2277831458583274E-011

 ITER STEP NUMBER    12
 vtorho : nnsclo_now=  1, note that nnsclo,dbl_nnsclo,istep=  0 0 12
 Total charge density [el/Bohr^3]
,     Maximum=    1.5547E+00  at reduced coord.    0.4688    0.5000    0.5938
,     Minimum=    3.7812E-04  at reduced coord.    0.0000    0.0000    0.0000
,  Integrated=    8.0000E+00
 ETOT 12  -25.206932819204     4.050E-13 2.690E-05 3.707E-12
 scprqt: <Vxc>= -3.6368204E-01 hartree

Anderson update:
  residual square of the potential:    2.2004930460714198E-012
  mixing of old trial potential    : -0.25955141596401443
  predicted best residual square on the line:    1.3781847968479041E-012

 ITER STEP NUMBER    13
 vtorho : nnsclo_now=  1, note that nnsclo,dbl_nnsclo,istep=  0 0 13
 Total charge density [el/Bohr^3]
,     Maximum=    1.5547E+00  at reduced coord.    0.4688    0.5000    0.5938
,     Minimum=    3.7812E-04  at reduced coord.    0.0000    0.0000    0.0000
,  Integrated=    8.0000E+00
 ETOT 13  -25.206932819204     4.938E-13 6.432E-05 3.463E-12
 scprqt: <Vxc>= -3.6368204E-01 hartree

Anderson update:
  residual square of the potential:    1.9580066841252382E-012
  mixing of old trial potential    :  0.48386337735824692
  predicted best residual square on the line:    1.9890807980900413E-013

 ITER STEP NUMBER    14
 vtorho : nnsclo_now=  1, note that nnsclo,dbl_nnsclo,istep=  0 0 14
 Total charge density [el/Bohr^3]
,     Maximum=    1.5547E+00  at reduced coord.    0.4688    0.5000    0.5938
,     Minimum=    3.7812E-04  at reduced coord.    0.0000    0.0000    0.0000
,  Integrated=    8.0000E+00
 ETOT 14  -25.206932819205    -1.027E-12 7.923E-06 1.075E-13
 scprqt: <Vxc>= -3.6368204E-01 hartree

Anderson update:
  residual square of the potential:    5.8978108095554499E-014
  mixing of old trial potential    : -0.17435741051076881
  predicted best residual square on the line:    1.6173335834290466E-014

 ITER STEP NUMBER    15
 vtorho : nnsclo_now=  1, note that nnsclo,dbl_nnsclo,istep=  0 0 15
 Total charge density [el/Bohr^3]
,     Maximum=    1.5547E+00  at reduced coord.    0.4688    0.5000    0.5938
,     Minimum=    3.7812E-04  at reduced coord.    0.0000    0.0000    0.0000
,  Integrated=    8.0000E+00
 ETOT 15  -25.206932819205    -1.990E-13 1.799E-05 9.665E-15
 scprqt: <Vxc>= -3.6368204E-01 hartree

Anderson update:
  residual square of the potential:    5.7489247593532818E-015
  mixing of old trial potential    :  0.19531087286839718
  predicted best residual square on the line:    2.4168426661727928E-015

 ITER STEP NUMBER    16
 vtorho : nnsclo_now=  1, note that nnsclo,dbl_nnsclo,istep=  0 0 16
 Total charge density [el/Bohr^3]
,     Maximum=    1.5547E+00  at reduced coord.    0.4688    0.5000    0.5938
,     Minimum=    3.7812E-04  at reduced coord.    0.0000    0.0000    0.0000
,  Integrated=    8.0000E+00
 ETOT 16  -25.206932819206    -8.669E-13 2.260E-06 3.396E-16
 scprqt: <Vxc>= -3.6368204E-01 hartree

Anderson update:
  residual square of the potential:    1.8771069251041264E-016
  mixing of old trial potential    :  -7.0373816914266779E-002
  predicted best residual square on the line:    1.6356708015195522E-016

 ITER STEP NUMBER    17
 vtorho : nnsclo_now=  1, note that nnsclo,dbl_nnsclo,istep=  0 0 17
 Total charge density [el/Bohr^3]
,     Maximum=    1.5547E+00  at reduced coord.    0.4688    0.5000    0.5938
,     Minimum=    3.7812E-04  at reduced coord.    0.0000    0.0000    0.0000
,  Integrated=    8.0000E+00
 ETOT 17  -25.206932819206    -3.553E-15 5.034E-06 1.997E-17
 scprqt: <Vxc>= -3.6368204E-01 hartree

Anderson update:
  residual square of the potential:    1.1446245671863656E-017
  mixing of old trial potential    : -0.29132313403830012
  predicted best residual square on the line:    1.9940911835339814E-018

 ITER STEP NUMBER    18
 vtorho : nnsclo_now=  1, note that nnsclo,dbl_nnsclo,istep=  0 0 18
 Total charge density [el/Bohr^3]
,     Maximum=    1.5547E+00  at reduced coord.    0.4688    0.5000    0.5938
,     Minimum=    3.7812E-04  at reduced coord.    0.0000    0.0000    0.0000
,  Integrated=    8.0000E+00
 ETOT 18  -25.206932819204     1.499E-12 6.433E-07 1.478E-18
 scprqt: <Vxc>= -3.6368204E-01 hartree

Anderson update:
  residual square of the potential:    8.1590503340950858E-019
  mixing of old trial potential    :  0.11769397946011653
  predicted best residual square on the line:    6.2332354312993112E-019

 ITER STEP NUMBER    19
 vtorho : nnsclo_now=  1, note that nnsclo,dbl_nnsclo,istep=  0 0 19
 Total charge density [el/Bohr^3]
,     Maximum=    1.5547E+00  at reduced coord.    0.4688    0.5000    0.5938
,     Minimum=    3.7812E-04  at reduced coord.    0.0000    0.0000    0.0000
,  Integrated=    8.0000E+00
 ETOT 19  -25.206932819206    -2.004E-12 1.414E-06 2.650E-19
 scprqt: <Vxc>= -3.6368204E-01 hartree

Anderson update:
  residual square of the potential:    1.5830751622932723E-019
  mixing of old trial potential    :  0.30029247575856605
  predicted best residual square on the line:    9.8423248868599724E-021

 ITER STEP NUMBER    20
 vtorho : nnsclo_now=  1, note that nnsclo,dbl_nnsclo,istep=  0 0 20
 Total charge density [el/Bohr^3]
,     Maximum=    1.5547E+00  at reduced coord.    0.4688    0.5000    0.5938
,     Minimum=    3.7812E-04  at reduced coord.    0.0000    0.0000    0.0000
,  Integrated=    8.0000E+00
 ETOT 20  -25.206932819205     1.453E-12 1.818E-07 1.778E-21
 scprqt: <Vxc>= -3.6368204E-01 hartree

Anderson update:
  residual square of the potential:    8.9417825066211143E-022
  mixing of old trial potential    :   2.0194771999179170E-002
  predicted best residual square on the line:    8.2727850518258286E-022

 ITER STEP NUMBER    21
 vtorho : nnsclo_now=  1, note that nnsclo,dbl_nnsclo,istep=  0 0 21
 Total charge density [el/Bohr^3]
,     Maximum=    1.5547E+00  at reduced coord.    0.4688    0.5000    0.5938
,     Minimum=    3.7812E-04  at reduced coord.    0.0000    0.0000    0.0000
,  Integrated=    8.0000E+00
 ETOT 21  -25.206932819205     3.979E-13 3.984E-07 1.028E-22
 scprqt: <Vxc>= -3.6368204E-01 hartree

Anderson update:
  residual square of the potential:    5.7695114266657233E-023
  mixing of old trial potential    : -0.20354076211310865
  predicted best residual square on the line:    3.3066457743050662E-023

 ITER STEP NUMBER    22
 vtorho : nnsclo_now=  1, note that nnsclo,dbl_nnsclo,istep=  0 0 22
 Total charge density [el/Bohr^3]
,     Maximum=    1.5547E+00  at reduced coord.    0.4688    0.5000    0.5938
,     Minimum=    3.7812E-04  at reduced coord.    0.0000    0.0000    0.0000
,  Integrated=    8.0000E+00
 ETOT 22  -25.206932819205    -7.816E-14 5.148E-08 2.836E-23
 scprqt: <Vxc>= -3.6368204E-01 hartree

Anderson update:
  residual square of the potential:    1.5326433881872361E-023
  mixing of old trial potential    :  0.18741202367953216
  predicted best residual square on the line:    1.2946101671089863E-023

 ITER STEP NUMBER    23
 vtorho : nnsclo_now=  1, note that nnsclo,dbl_nnsclo,istep=  0 0 23
 Total charge density [el/Bohr^3]
,     Maximum=    1.5547E+00  at reduced coord.    0.4688    0.5000    0.5938
,     Minimum=    3.7812E-04  at reduced coord.    0.0000    0.0000    0.0000
,  Integrated=    8.0000E+00
 ETOT 23  -25.206932819205    -7.105E-14 1.124E-07 1.392E-23
 scprqt: <Vxc>= -3.6368204E-01 hartree

Anderson update:
  residual square of the potential:    8.1452276277908185E-024
  mixing of old trial potential    :  0.41724598246719674
  predicted best residual square on the line:    5.9147696952164459E-025

 ITER STEP NUMBER    24
 vtorho : nnsclo_now=  1, note that nnsclo,dbl_nnsclo,istep=  0 0 24
 Total charge density [el/Bohr^3]
,     Maximum=    1.5547E+00  at reduced coord.    0.4688    0.5000    0.5938
,     Minimum=    3.7812E-04  at reduced coord.    0.0000    0.0000    0.0000
,  Integrated=    8.0000E+00
 ETOT 24  -25.206932819205     1.350E-13 1.455E-08 4.920E-25
 scprqt: <Vxc>= -3.6368204E-01 hartree

Anderson update:
  residual square of the potential:    2.9294690513973352E-025
  mixing of old trial potential    : -0.21682985360552348
  predicted best residual square on the line:    3.5440585999994270E-026

 ITER STEP NUMBER    25
 vtorho : nnsclo_now=  1, note that nnsclo,dbl_nnsclo,istep=  0 0 25
 Total charge density [el/Bohr^3]
,     Maximum=    1.5547E+00  at reduced coord.    0.4688    0.5000    0.5938
,     Minimum=    3.7812E-04  at reduced coord.    0.0000    0.0000    0.0000
,  Integrated=    8.0000E+00
 ETOT 25  -25.206932819205    -5.684E-14 3.176E-08 8.156E-25
 scprqt: <Vxc>= -3.6368204E-01 hartree

Anderson update:
  residual square of the potential:    4.6075283805529884E-025
  mixing of old trial potential    :   1.5298337912670050
  predicted best residual square on the line:    2.7007567711684372E-025

 ITER STEP NUMBER    26
 vtorho : nnsclo_now=  1, note that nnsclo,dbl_nnsclo,istep=  0 0 26
 Total charge density [el/Bohr^3]
,     Maximum=    1.5547E+00  at reduced coord.    0.4688    0.5000    0.5938
,     Minimum=    3.7812E-04  at reduced coord.    0.0000    0.0000    0.0000
,  Integrated=    8.0000E+00
 ETOT 26  -25.206932819205    -1.066E-14 4.118E-09 1.345E-24
 scprqt: <Vxc>= -3.6368204E-01 hartree

Anderson update:
  residual square of the potential:    7.6363911008175072E-025
  mixing of old trial potential    :   3.7433273231146309
  predicted best residual square on the line:    1.0934287403386690E-025

 ITER STEP NUMBER    27
 vtorho : nnsclo_now=  1, note that nnsclo,dbl_nnsclo,istep=  0 0 27
 Total charge density [el/Bohr^3]
,     Maximum=    1.5547E+00  at reduced coord.    0.4688    0.5000    0.5938
,     Minimum=    3.7812E-04  at reduced coord.    0.0000    0.0000    0.0000
,  Integrated=    8.0000E+00
 ETOT 27  -25.206932819205    -3.197E-14 8.986E-09 7.382E-25
 scprqt: <Vxc>= -3.6368204E-01 hartree

Anderson update:
  residual square of the potential:    4.3355773435231399E-025
  mixing of old trial potential    : -0.72705735492636903
  predicted best residual square on the line:    3.6245873207453202E-025

 ITER STEP NUMBER    28
 vtorho : nnsclo_now=  1, note that nnsclo,dbl_nnsclo,istep=  0 0 28
 Total charge density [el/Bohr^3]
,     Maximum=    1.5547E+00  at reduced coord.    0.4688    0.5000    0.5938
,     Minimum=    3.7812E-04  at reduced coord.    0.0000    0.0000    0.0000
,  Integrated=    8.0000E+00
 ETOT 28  -25.206932819205     5.684E-14 1.166E-09 3.886E-25
 scprqt: <Vxc>= -3.6368204E-01 hartree

Anderson update:
  residual square of the potential:    2.2766343476875288E-025
  mixing of old trial potential    :  0.41494287343624842
  predicted best residual square on the line:    1.9271819851848214E-026

 ITER STEP NUMBER    29
 vtorho : nnsclo_now=  1, note that nnsclo,dbl_nnsclo,istep=  0 0 29
 Total charge density [el/Bohr^3]
,     Maximum=    1.5547E+00  at reduced coord.    0.4688    0.5000    0.5938
,     Minimum=    3.7812E-04  at reduced coord.    0.0000    0.0000    0.0000
,  Integrated=    8.0000E+00
 ETOT 29  -25.206932819205    -4.974E-14 2.545E-09 1.277E-25
 scprqt: <Vxc>= -3.6368204E-01 hartree

Anderson update:
  residual square of the potential:    7.2569975860468341E-026
  mixing of old trial potential    :  0.35610576147288031
  predicted best residual square on the line:    4.2294869773941433E-027

 ITER STEP NUMBER    30
 vtorho : nnsclo_now=  1, note that nnsclo,dbl_nnsclo,istep=  0 0 30
 Total charge density [el/Bohr^3]
,     Maximum=    1.5547E+00  at reduced coord.    0.4688    0.5000    0.5938
,     Minimum=    3.7812E-04  at reduced coord.    0.0000    0.0000    0.0000
,  Integrated=    8.0000E+00
 ETOT 30  -25.206932819205     7.105E-15 3.303E-10 2.301E-26
 scprqt: <Vxc>= -3.6368204E-01 hartree

Anderson update:
  residual square of the potential:    1.4308619075531578E-026
  mixing of old trial potential    : -0.29727189053129643
  predicted best residual square on the line:    1.1079739585854864E-026

 ITER STEP NUMBER    31
 vtorho : nnsclo_now=  1, note that nnsclo,dbl_nnsclo,istep=  0 0 31
 Total charge density [el/Bohr^3]
,     Maximum=    1.5547E+00  at reduced coord.    0.4688    0.5000    0.5938
,     Minimum=    3.7812E-04  at reduced coord.    0.0000    0.0000    0.0000
,  Integrated=    8.0000E+00
 ETOT 31  -25.206932819205    -1.776E-14 7.218E-10 2.493E-26
 scprqt: <Vxc>= -3.6368204E-01 hartree

Anderson update:
  residual square of the potential:    1.7731709361872609E-026
  mixing of old trial potential    :  0.58345039938795584
  predicted best residual square on the line:    1.0749902642869719E-026

 ITER STEP NUMBER    32
 vtorho : nnsclo_now=  1, note that nnsclo,dbl_nnsclo,istep=  0 0 32
 Total charge density [el/Bohr^3]
,     Maximum=    1.5547E+00  at reduced coord.    0.4688    0.5000    0.5938
,     Minimum=    3.7812E-04  at reduced coord.    0.0000    0.0000    0.0000
,  Integrated=    8.0000E+00
 ETOT 32  -25.206932819205     3.553E-15 9.367E-11 3.696E-27
 scprqt: <Vxc>= -3.6368204E-01 hartree

Anderson update:
  residual square of the potential:    3.4667698829232770E-027
  mixing of old trial potential    :   8.3645092407511473E-002
  predicted best residual square on the line:    3.3469146003126256E-027

 ITER STEP NUMBER    33
 vtorho : nnsclo_now=  1, note that nnsclo,dbl_nnsclo,istep=  0 0 33
 Total charge density [el/Bohr^3]
,     Maximum=    1.5547E+00  at reduced coord.    0.4688    0.5000    0.5938
,     Minimum=    3.7812E-04  at reduced coord.    0.0000    0.0000    0.0000
,  Integrated=    8.0000E+00
 ETOT 33  -25.206932819205    -1.066E-14 2.049E-10 8.840E-27
 scprqt: <Vxc>= -3.6368204E-01 hartree

Anderson update:
  residual square of the potential:    6.7424754845646656E-027
  mixing of old trial potential    :  0.62391023956616587
  predicted best residual square on the line:    1.5971613147514647E-027

 ITER STEP NUMBER    34
 vtorho : nnsclo_now=  1, note that nnsclo,dbl_nnsclo,istep=  0 0 34
 Total charge density [el/Bohr^3]
,     Maximum=    1.5547E+00  at reduced coord.    0.4688    0.5000    0.5938
,     Minimum=    3.7812E-04  at reduced coord.    0.0000    0.0000    0.0000
,  Integrated=    8.0000E+00
 ETOT 34  -25.206932819205     0.000E+00 2.660E-11 6.525E-27
 scprqt: <Vxc>= -3.6368204E-01 hartree

Anderson update:
  residual square of the potential:    5.0061171183170686E-027
  mixing of old trial potential    :  0.33209718943964184
  predicted best residual square on the line:    4.4358454411902881E-027

 ITER STEP NUMBER    35
 vtorho : nnsclo_now=  1, note that nnsclo,dbl_nnsclo,istep=  0 0 35
 Total charge density [el/Bohr^3]
,     Maximum=    1.5547E+00  at reduced coord.    0.4688    0.5000    0.5938
,     Minimum=    3.7812E-04  at reduced coord.    0.0000    0.0000    0.0000
,  Integrated=    8.0000E+00
 ETOT 35  -25.206932819205    -1.421E-14 5.826E-11 3.597E-27
 scprqt: <Vxc>= -3.6368204E-01 hartree

Anderson update:
  residual square of the potential:    3.3824833587641331E-027
  mixing of old trial potential    :  0.41938409862298226
  predicted best residual square on the line:    1.6113091384042835E-027

 ITER STEP NUMBER    36
 vtorho : nnsclo_now=  1, note that nnsclo,dbl_nnsclo,istep=  0 0 36
 Total charge density [el/Bohr^3]
,     Maximum=    1.5547E+00  at reduced coord.    0.4688    0.5000    0.5938
,     Minimum=    3.7812E-04  at reduced coord.    0.0000    0.0000    0.0000
,  Integrated=    8.0000E+00
 ETOT 36  -25.206932819205     7.105E-15 7.559E-12 2.554E-27
 scprqt: <Vxc>= -3.6368204E-01 hartree

Anderson update:
  residual square of the potential:    2.4405693724732522E-027
  mixing of old trial potential    :  0.41704215499614833
  predicted best residual square on the line:    1.4531907951388342E-027

 ITER STEP NUMBER    37
 vtorho : nnsclo_now=  1, note that nnsclo,dbl_nnsclo,istep=  0 0 37
 Total charge density [el/Bohr^3]
,     Maximum=    1.5547E+00  at reduced coord.    0.4688    0.5000    0.5938
,     Minimum=    3.7812E-04  at reduced coord.    0.0000    0.0000    0.0000
,  Integrated=    8.0000E+00
 ETOT 37  -25.206932819205    -7.105E-15 1.659E-11 3.294E-27
 scprqt: <Vxc>= -3.6368204E-01 hartree

Anderson update:
  residual square of the potential:    3.1650825106996085E-027
  mixing of old trial potential    :  0.55843549320723163
  predicted best residual square on the line:    1.2318433549130085E-027

 ITER STEP NUMBER    38
 vtorho : nnsclo_now=  1, note that nnsclo,dbl_nnsclo,istep=  0 0 38
 Total charge density [el/Bohr^3]
,     Maximum=    1.5547E+00  at reduced coord.    0.4688    0.5000    0.5938
,     Minimum=    3.7812E-04  at reduced coord.    0.0000    0.0000    0.0000
,  Integrated=    8.0000E+00
 ETOT 38  -25.206932819205     1.421E-14 2.151E-12 2.289E-27
 scprqt: <Vxc>= -3.6368204E-01 hartree

Anderson update:
  residual square of the potential:    2.2078043923253453E-027
  mixing of old trial potential    :  0.42273951186879133
  predicted best residual square on the line:    1.1006801214060460E-027

 ITER STEP NUMBER    39
 vtorho : nnsclo_now=  1, note that nnsclo,dbl_nnsclo,istep=  0 0 39
 Total charge density [el/Bohr^3]
,     Maximum=    1.5547E+00  at reduced coord.    0.4688    0.5000    0.5938
,     Minimum=    3.7812E-04  at reduced coord.    0.0000    0.0000    0.0000
,  Integrated=    8.0000E+00
 ETOT 39  -25.206932819205    -7.105E-15 4.727E-12 1.951E-27
 scprqt: <Vxc>= -3.6368204E-01 hartree

Anderson update:
  residual square of the potential:    1.9038141829751402E-027
  mixing of old trial potential    :  0.47163532762973626
  predicted best residual square on the line:    7.1184648639956062E-028

 ITER STEP NUMBER    40
 vtorho : nnsclo_now=  1, note that nnsclo,dbl_nnsclo,istep=  0 0 40
 Total charge density [el/Bohr^3]
,     Maximum=    1.5547E+00  at reduced coord.    0.4688    0.5000    0.5938
,     Minimum=    3.7812E-04  at reduced coord.    0.0000    0.0000    0.0000
,  Integrated=    8.0000E+00
 ETOT 40  -25.206932819205    -7.105E-15 6.125E-13 3.108E-27
 scprqt: <Vxc>= -3.6368204E-01 hartree

Anderson update:
  residual square of the potential:    3.0221329118268609E-027
  mixing of old trial potential    :  0.61176433994639312
  predicted best residual square on the line:    1.1497241650333422E-027

 ITER STEP NUMBER    41
 vtorho : nnsclo_now=  1, note that nnsclo,dbl_nnsclo,istep=  0 0 41
 Total charge density [el/Bohr^3]
,     Maximum=    1.5547E+00  at reduced coord.    0.4688    0.5000    0.5938
,     Minimum=    3.7812E-04  at reduced coord.    0.0000    0.0000    0.0000
,  Integrated=    8.0000E+00
 ETOT 41  -25.206932819205     0.000E+00 1.349E-12 2.996E-27
 scprqt: <Vxc>= -3.6368204E-01 hartree

Anderson update:
  residual square of the potential:    2.8263859429870167E-027
  mixing of old trial potential    :  0.48063072936167561
  predicted best residual square on the line:    1.6591064629462372E-027

 ITER STEP NUMBER    42
 vtorho : nnsclo_now=  1, note that nnsclo,dbl_nnsclo,istep=  0 0 42
 Total charge density [el/Bohr^3]
,     Maximum=    1.5547E+00  at reduced coord.    0.4688    0.5000    0.5938
,     Minimum=    3.7812E-04  at reduced coord.    0.0000    0.0000    0.0000
,  Integrated=    8.0000E+00
 ETOT 42  -25.206932819205     7.105E-15 1.746E-13 1.820E-27
 scprqt: <Vxc>= -3.6368204E-01 hartree

Anderson update:
  residual square of the potential:    1.7517295497140083E-027
  mixing of old trial potential    :  0.36932417185499056
  predicted best residual square on the line:    1.1908626177221671E-027

 ITER STEP NUMBER    43
 vtorho : nnsclo_now=  1, note that nnsclo,dbl_nnsclo,istep=  0 0 43
 Total charge density [el/Bohr^3]
,     Maximum=    1.5547E+00  at reduced coord.    0.4688    0.5000    0.5938
,     Minimum=    3.7812E-04  at reduced coord.    0.0000    0.0000    0.0000
,  Integrated=    8.0000E+00
 ETOT 43  -25.206932819205    -3.553E-15 3.855E-13 5.307E-27
 scprqt: <Vxc>= -3.6368204E-01 hartree

Anderson update:
  residual square of the potential:    4.5785411644914375E-027
  mixing of old trial potential    :  0.67419595444168268
  predicted best residual square on the line:    8.9045472638090038E-028

 ITER STEP NUMBER    44
 vtorho : nnsclo_now=  1, note that nnsclo,dbl_nnsclo,istep=  0 0 44
 Total charge density [el/Bohr^3]
,     Maximum=    1.5547E+00  at reduced coord.    0.4688    0.5000    0.5938
,     Minimum=    3.7812E-04  at reduced coord.    0.0000    0.0000    0.0000
,  Integrated=    8.0000E+00
 ETOT 44  -25.206932819205    -1.066E-14 4.984E-14 2.432E-27
 scprqt: <Vxc>= -3.6368204E-01 hartree

Anderson update:
  residual square of the potential:    2.3311815831632704E-027
  mixing of old trial potential    :  0.34832854755541837
  predicted best residual square on the line:    1.4322702368956629E-027

 ITER STEP NUMBER    45
 vtorho : nnsclo_now=  1, note that nnsclo,dbl_nnsclo,istep=  0 0 45
 Total charge density [el/Bohr^3]
,     Maximum=    1.5547E+00  at reduced coord.    0.4688    0.5000    0.5938
,     Minimum=    3.7812E-04  at reduced coord.    0.0000    0.0000    0.0000
,  Integrated=    8.0000E+00
 ETOT 45  -25.206932819205     1.066E-14 1.103E-13 2.534E-27
 scprqt: <Vxc>= -3.6368204E-01 hartree

Anderson update:
  residual square of the potential:    2.4422819022426580E-027
  mixing of old trial potential    :  0.50874321740369199
  predicted best residual square on the line:    7.9786740231126590E-028

 ITER STEP NUMBER    46
 vtorho : nnsclo_now=  1, note that nnsclo,dbl_nnsclo,istep=  0 0 46
 Total charge density [el/Bohr^3]
,     Maximum=    1.5547E+00  at reduced coord.    0.4688    0.5000    0.5938
,     Minimum=    3.7812E-04  at reduced coord.    0.0000    0.0000    0.0000
,  Integrated=    8.0000E+00
 ETOT 46  -25.206932819205    -1.066E-14 1.424E-14 3.479E-27
 scprqt: <Vxc>= -3.6368204E-01 hartree

Anderson update:
  residual square of the potential:    3.2372200043615479E-027
  mixing of old trial potential    :  0.56414564406829071
  predicted best residual square on the line:    1.2651668067169848E-027

 ITER STEP NUMBER    47
 vtorho : nnsclo_now=  1, note that nnsclo,dbl_nnsclo,istep=  0 0 47
 Total charge density [el/Bohr^3]
,     Maximum=    1.5547E+00  at reduced coord.    0.4688    0.5000    0.5938
,     Minimum=    3.7812E-04  at reduced coord.    0.0000    0.0000    0.0000
,  Integrated=    8.0000E+00
 ETOT 47  -25.206932819205     2.132E-14 3.158E-14 3.779E-27
 scprqt: <Vxc>= -3.6368204E-01 hartree

Anderson update:
  residual square of the potential:    3.3825312623171630E-027
  mixing of old trial potential    :  0.51262518911970745
  predicted best residual square on the line:    1.8702545674540055E-027

 ITER STEP NUMBER    48
 vtorho : nnsclo_now=  1, note that nnsclo,dbl_nnsclo,istep=  0 0 48
 Total charge density [el/Bohr^3]
,     Maximum=    1.5547E+00  at reduced coord.    0.4688    0.5000    0.5938
,     Minimum=    3.7812E-04  at reduced coord.    0.0000    0.0000    0.0000
,  Integrated=    8.0000E+00
 ETOT 48  -25.206932819205    -7.105E-15 4.071E-15 3.466E-27
 scprqt: <Vxc>= -3.6368204E-01 hartree

Anderson update:
  residual square of the potential:    3.2742081209771041E-027
  mixing of old trial potential    :  0.49419278468255606
  predicted best residual square on the line:    9.9640532344407571E-028

 ITER STEP NUMBER    49
 vtorho : nnsclo_now=  1, note that nnsclo,dbl_nnsclo,istep=  0 0 49
 Total charge density [el/Bohr^3]
,     Maximum=    1.5547E+00  at reduced coord.    0.4688    0.5000    0.5938
,     Minimum=    3.7812E-04  at reduced coord.    0.0000    0.0000    0.0000
,  Integrated=    8.0000E+00
 ETOT 49  -25.206932819205    -1.066E-14 9.053E-15 3.593E-27
 scprqt: <Vxc>= -3.6368204E-01 hartree

Anderson update:
  residual square of the potential:    3.1930954580596711E-027
  mixing of old trial potential    :  0.49265038503321207
  predicted best residual square on the line:    1.8538143918614669E-027

 ITER STEP NUMBER    50
 vtorho : nnsclo_now=  1, note that nnsclo,dbl_nnsclo,istep=  0 0 50
 Total charge density [el/Bohr^3]
,     Maximum=    1.5547E+00  at reduced coord.    0.4688    0.5000    0.5938
,     Minimum=    3.7812E-04  at reduced coord.    0.0000    0.0000    0.0000
,  Integrated=    8.0000E+00
 ETOT 50  -25.206932819205    -3.553E-15 1.165E-15 2.307E-27
 scprqt: <Vxc>= -3.6368204E-01 hartree

Anderson update:
  residual square of the potential:    2.1792977594187800E-027
  mixing of old trial potential    :  0.40476617504217927
  predicted best residual square on the line:    1.3072535485184813E-027

 ITER STEP NUMBER    51
 vtorho : nnsclo_now=  1, note that nnsclo,dbl_nnsclo,istep=  0 0 51
 Total charge density [el/Bohr^3]
,     Maximum=    1.5547E+00  at reduced coord.    0.4688    0.5000    0.5938
,     Minimum=    3.7812E-04  at reduced coord.    0.0000    0.0000    0.0000
,  Integrated=    8.0000E+00
 ETOT 51  -25.206932819205     1.421E-14 2.598E-15 4.841E-27
 scprqt: <Vxc>= -3.6368204E-01 hartree

Anderson update:
  residual square of the potential:    4.2020849856530942E-027
  mixing of old trial potential    :  0.62763868370672349
  predicted best residual square on the line:    1.0806284229168024E-027

 ITER STEP NUMBER    52
 vtorho : nnsclo_now=  1, note that nnsclo,dbl_nnsclo,istep=  0 0 52
 Total charge density [el/Bohr^3]
,     Maximum=    1.5547E+00  at reduced coord.    0.4688    0.5000    0.5938
,     Minimum=    3.7812E-04  at reduced coord.    0.0000    0.0000    0.0000
,  Integrated=    8.0000E+00
 ETOT 52  -25.206932819205    -7.105E-15 3.337E-16 2.447E-27
 scprqt: <Vxc>= -3.6368204E-01 hartree

Anderson update:
  residual square of the potential:    2.3725568298375190E-027
  mixing of old trial potential    :  0.37551213071146600
  predicted best residual square on the line:    1.3363892241191274E-027

 ITER STEP NUMBER    53
 vtorho : nnsclo_now=  1, note that nnsclo,dbl_nnsclo,istep=  0 0 53
 Total charge density [el/Bohr^3]
,     Maximum=    1.5547E+00  at reduced coord.    0.4688    0.5000    0.5938
,     Minimum=    3.7812E-04  at reduced coord.    0.0000    0.0000    0.0000
,  Integrated=    8.0000E+00
 ETOT 53  -25.206932819205    -3.553E-15 7.460E-16 2.621E-27
 scprqt: <Vxc>= -3.6368204E-01 hartree

Anderson update:
  residual square of the potential:    2.4537278770971264E-027
  mixing of old trial potential    :  0.50695283717057515
  predicted best residual square on the line:    9.5354497737182419E-028

 ITER STEP NUMBER    54
 vtorho : nnsclo_now=  1, note that nnsclo,dbl_nnsclo,istep=  0 0 54
 Total charge density [el/Bohr^3]
,     Maximum=    1.5547E+00  at reduced coord.    0.4688    0.5000    0.5938
,     Minimum=    3.7812E-04  at reduced coord.    0.0000    0.0000    0.0000
,  Integrated=    8.0000E+00
 ETOT 54  -25.206932819205     1.066E-14 9.563E-17 4.340E-27
 scprqt: <Vxc>= -3.6368204E-01 hartree

 At SCF step   54   max residual=  9.56E-17 < tolwfr=  1.00E-16 =>converged.
forstrnps: loop on k-points and spins done in parallel
  strhar : before mpi_comm, harstr=  0.15279096667124639       0.15279096667124581       0.15279096667124595        1.7347234759768071E-018  -3.4694469519536142E-018   1.2490009027033011E-016
  strhar : after mpi_comm, harstr=  0.15279096667124639       0.15279096667124581       0.15279096667124595        1.7347234759768071E-018  -3.4694469519536142E-018   1.2490009027033011E-016
  strhar : ehart,ucvol=   8.3375645173744548        114.28787101431435     

 Cartesian components of stress tensor (hartree/bohr^3)
  sigma(1 1)=  5.42411429E-05  sigma(3 2)=  0.00000000E+00
  sigma(2 2)=  5.42411429E-05  sigma(3 1)=  0.00000000E+00
  sigma(3 3)=  5.42411429E-05  sigma(2 1)=  0.00000000E+00

   1  1  1  1  1  1  1  1  1  1  1  1  1  1  1  1  1  1  1  1  1  1  1  1
   1  1  1  1  1  1  1  1  1  1  1  1  1  1  1  1  1  1  1  1  1  1  1  1
   2  2  2  2  2  2  2  2  2  2  2  2  2  2  2  2  2  2  2  2  2  2  2  2
   2  2  2  2  2  2  2  2  2  2  2  2  2  2  2  2  2  2  2  2  2  2  2  2
 ioarr: writing density data
ioarr: file name is io_files/LiF_scf_o_DEN
ioarr: data written to disk file io_files/LiF_scf_o_DEN
================================================================================

 ----iterations are completed or convergence reached----


 outwf: write wavefunction to file io_files/LiF_scf_o_WFK, with accesswff -1
 leave_test : synchronization done...
 outwf with iomode: -1, cpu:     0.01, wall:     0.01

 === Gap info ===
  >>>> For spin  1
   Minimum optical gap =   9.0080 [eV], located at k-point      :   0.1250  0.1250  0.1250
   Fundamental gap     =   9.0080 [eV], Top of valence bands at :   0.1250  0.1250  0.1250
                                        Bottom of conduction at :   0.1250  0.1250  0.1250

 Cartesian components of stress tensor (hartree/bohr^3)
  sigma(1 1)=  5.42411429E-05  sigma(3 2)=  0.00000000E+00
  sigma(2 2)=  5.42411429E-05  sigma(3 1)=  0.00000000E+00
  sigma(3 3)=  5.42411429E-05  sigma(2 1)=  0.00000000E+00

-Cartesian components of stress tensor (GPa)         [Pressure= -1.5958E+00 GPa]
- sigma(1 1)=  1.59582925E+00  sigma(3 2)=  0.00000000E+00
- sigma(2 2)=  1.59582925E+00  sigma(3 1)=  0.00000000E+00
- sigma(3 3)=  1.59582925E+00  sigma(2 1)=  0.00000000E+00

== END DATASET(S) ==============================================================
================================================================================
  
 -outvars: echo values of variables after computation  --------
            acell      7.7034756000E+00  7.7034756000E+00  7.7034756000E+00 Bohr
              amu      6.94100000E+00  1.89984032E+01
      chksymbreak           0
             ecut      4.00000000E+01 Hartree
           etotal     -2.5206932819E+01
            fcart     -0.0000000000E+00 -0.0000000000E+00 -0.0000000000E+00
                      -0.0000000000E+00 -0.0000000000E+00 -0.0000000000E+00
             iscf           3
              kpt      1.25000000E-01  1.25000000E-01  1.25000000E-01
                       3.75000000E-01  1.25000000E-01  1.25000000E-01
                      -3.75000000E-01  1.25000000E-01  1.25000000E-01
                      -1.25000000E-01  1.25000000E-01  1.25000000E-01
                       3.75000000E-01  3.75000000E-01  1.25000000E-01
                      -3.75000000E-01  3.75000000E-01  1.25000000E-01
                      -1.25000000E-01  3.75000000E-01  1.25000000E-01
                      -3.75000000E-01 -3.75000000E-01  1.25000000E-01
                       3.75000000E-01  3.75000000E-01  3.75000000E-01
                      -3.75000000E-01  3.75000000E-01  3.75000000E-01
         kptrlatt        4    0    0      0    4    0      0    0    4
          kptrlen      2.17887193E+01
P           mkmem          10
            natom           2
            nband          10
            ngfft          32      32      32
             nkpt          10
            nstep        3000
             nsym          48
           ntypat           2
              occ      2.000000  2.000000  2.000000  2.000000  0.000000  0.000000
                       0.000000  0.000000  0.000000  0.000000
            rprim      0.0000000000E+00  5.0000000000E-01  5.0000000000E-01
                       5.0000000000E-01  0.0000000000E+00  5.0000000000E-01
                       5.0000000000E-01  5.0000000000E-01  0.0000000000E+00
           shiftk      5.00000000E-01  5.00000000E-01  5.00000000E-01
          spgroup         225
           strten      5.4241142919E-05  5.4241142919E-05  5.4241142919E-05
                       0.0000000000E+00  0.0000000000E+00  0.0000000000E+00
           symrel      1  0  0   0  1  0   0  0  1      -1  0  0   0 -1  0   0  0 -1
                       0 -1  1   0 -1  0   1 -1  0       0  1 -1   0  1  0  -1  1  0
                      -1  0  0  -1  0  1  -1  1  0       1  0  0   1  0 -1   1 -1  0
                       0  1 -1   1  0 -1   0  0 -1       0 -1  1  -1  0  1   0  0  1
                      -1  0  0  -1  1  0  -1  0  1       1  0  0   1 -1  0   1  0 -1
                       0 -1  1   1 -1  0   0 -1  0       0  1 -1  -1  1  0   0  1  0
                       1  0  0   0  0  1   0  1  0      -1  0  0   0  0 -1   0 -1  0
                       0  1 -1   0  0 -1   1  0 -1       0 -1  1   0  0  1  -1  0  1
                      -1  0  1  -1  1  0  -1  0  0       1  0 -1   1 -1  0   1  0  0
                       0 -1  0   1 -1  0   0 -1  1       0  1  0  -1  1  0   0  1 -1
                       1  0 -1   0  0 -1   0  1 -1      -1  0  1   0  0  1   0 -1  1
                       0  1  0   0  0  1   1  0  0       0 -1  0   0  0 -1  -1  0  0
                       1  0 -1   0  1 -1   0  0 -1      -1  0  1   0 -1  1   0  0  1
                       0 -1  0   0 -1  1   1 -1  0       0  1  0   0  1 -1  -1  1  0
                      -1  0  1  -1  0  0  -1  1  0       1  0 -1   1  0  0   1 -1  0
                       0  1  0   1  0  0   0  0  1       0 -1  0  -1  0  0   0  0 -1
                       0  0 -1   0  1 -1   1  0 -1       0  0  1   0 -1  1  -1  0  1
                       1 -1  0   0 -1  1   0 -1  0      -1  1  0   0  1 -1   0  1  0
                       0  0  1   1  0  0   0  1  0       0  0 -1  -1  0  0   0 -1  0
                      -1  1  0  -1  0  0  -1  0  1       1 -1  0   1  0  0   1  0 -1
                       0  0  1   0  1  0   1  0  0       0  0 -1   0 -1  0  -1  0  0
                       1 -1  0   0 -1  0   0 -1  1      -1  1  0   0  1  0   0  1 -1
                       0  0 -1   1  0 -1   0  1 -1       0  0  1  -1  0  1   0 -1  1
                      -1  1  0  -1  0  1  -1  0  0       1 -1  0   1  0 -1   1  0  0
           tolwfr      1.00000000E-16
            typat      1  2
              wtk        0.03125    0.09375    0.09375    0.09375    0.09375    0.18750
                         0.18750    0.09375    0.03125    0.09375
           xangst      0.0000000000E+00  0.0000000000E+00  0.0000000000E+00
                      -2.0382518572E+00  0.0000000000E+00  0.0000000000E+00
            xcart      0.0000000000E+00  0.0000000000E+00  0.0000000000E+00
                      -3.8517378000E+00  0.0000000000E+00  0.0000000000E+00
             xred      0.0000000000E+00  0.0000000000E+00  0.0000000000E+00
                       5.0000000000E-01 -5.0000000000E-01 -5.0000000000E-01
            znucl        3.00000    9.00000

================================================================================
  

================================================================================

 Suggested references for the acknowledgment of ABINIT usage.

 The users of ABINIT have little formal obligations with respect to the ABINIT group
 (those specified in the GNU General Public License, http://www.gnu.org/copyleft/gpl.txt).
 However, it is common practice in the scientific literature,
 to acknowledge the efforts of people that have made the research possible.
 In this spirit, please find below suggested citations of work written by ABINIT developers,
 corresponding to implementations inside of ABINIT that you have used in the present run.
 Note also that it will be of great value to readers of publications presenting these results,
 to read papers enabling them to understand the theoretical formalism and details
 of the ABINIT implementation.
 For information on why they are suggested, see also http://www.abinit.org/about/?text=acknowledgments.

 [1] ABINIT : First-principles approach of materials and nanosystem properties.
 X. Gonze, B. Amadon, P.-M. Anglade, J.-M. Beuken, F. Bottin, P. Boulanger, F. Bruneval,
 D. Caliste, R. Caracas, M. Cote, T. Deutsch, L. Genovese, Ph. Ghosez, M. Giantomassi
 S. Goedecker, D.R. Hamann, P. Hermet, F. Jollet, G. Jomard, S. Leroux, M. Mancini, S. Mazevet,
 M.J.T. Oliveira, G. Onida, Y. Pouillon, T. Rangel, G.-M. Rignanese, D. Sangalli, R. Shaltaf,
 M. Torrent, M.J. Verstraete, G. Zerah, J.W. Zwanziger
 Computer Phys. Comm. 180, 2582-2615 (2009).
 Comment : the third generic paper describing the ABINIT project.
 Note that a version of this paper, that is not formatted for Computer Phys. Comm. 
 is available at http://www.abinit.org/about/ABINIT_CPC_v10.pdf .
 The licence allows the authors to put it on the Web.

 [2] A brief introduction to the ABINIT software package.
 X. Gonze, G.-M. Rignanese, M. Verstraete, J.-M. Beuken, Y. Pouillon, R. Caracas, F. Jollet,
 M. Torrent, G. Zerah, M. Mikami, Ph. Ghosez, M. Veithen, J.-Y. Raty, V. Olevano, F. Bruneval,
 L. Reining, R. Godby, G. Onida, D.R. Hamann, and D.C. Allan.
 Z. Kristallogr. 220, 558-562 (2005).
 Comment : the second generic paper describing the ABINIT project. Note that this paper
 should be cited especially if you are using the GW part of ABINIT, as several authors
 of this part are not in the list of authors of the first or third paper.
 The .pdf of the latter paper is available at http://www.abinit.org/about/zfk_0505-06_558-562.pdf.
 Note that it should not redistributed (Copyright by Oldenburg Wissenshaftverlag,
 the licence allows the authors to put it on the Web).


 And optionally :

 [3] First-principles computation of material properties : the ABINIT software project. 
 X. Gonze, J.-M. Beuken, R. Caracas, F. Detraux, M. Fuchs, G.-M. Rignanese, L. Sindic,
 M. Verstraete, G. Zerah, F. Jollet, M. Torrent, A. Roy, M. Mikami, Ph. Ghosez, J.-Y. Raty, D.C. Allan.
 Computational Materials Science 25, 478-492 (2002). http://dx.doi.org/10.1016/S0927-0256(02)00325-7
 Comment : the original paper describing the ABINIT project.

 [4] Fast radix 2, 3, 4 and 5 kernels for Fast Fourier Transformations
 on computers with overlapping multiply-add instructions.
 S. Goedecker, SIAM J. on Scientific Computing 18, 1605 (1997).
 Proc.   0 individual time (sec): cpu=         12.8  wall=         13.8

 Calculation completed.
.Delivered    2 WARNINGs and   2 COMMENTs to log file.
