
     Program PWSCF v.5.1 (svn rev. 11219) starts on 28Oct2016 at 21: 2:29 

     This program is part of the open-source Quantum ESPRESSO suite
     for quantum simulation of materials; please cite
         "P. Giannozzi et al., J. Phys.:Condens. Matter 21 395502 (2009);
          URL http://www.quantum-espresso.org", 
     in publications or presentations arising from this work. More details at
     http://www.quantum-espresso.org/quote

     Parallel version (MPI), running on     1 processors
     Waiting for input...
     Reading input from standard input

     Current dimensions of program PWSCF are:
     Max number of different atomic species (ntypx) = 10
     Max number of k-points (npk) =  40000
     Max angular momentum in pseudopotentials (lmaxx) =  3

     Atomic positions and unit cell read from directory:
     ./Si_nscf_yambo_kx25.save/


     Subspace diagonalization in iterative solution of the eigenvalue problem:
     a serial algorithm will be used


     G-vector sticks info
     --------------------
     sticks:   dense  smooth     PW     G-vecs:    dense   smooth      PW
     Sum         211     211     85                 2085     2085     459



     bravais-lattice index     =            2
     lattice parameter (alat)  =      10.1830  a.u.
     unit-cell volume          =     263.9777 (a.u.)^3
     number of atoms/cell      =            2
     number of atomic types    =            1
     number of electrons       =         8.00
     number of Kohn-Sham states=           16
     kinetic-energy cutoff     =      15.0000  Ry
     charge density cutoff     =      60.0000  Ry
     Exchange-correlation      =  SLA  PZ   NOGX NOGC ( 1  1  0  0 0 0)

     celldm(1)=  10.183000  celldm(2)=   0.000000  celldm(3)=   0.000000
     celldm(4)=   0.000000  celldm(5)=   0.000000  celldm(6)=   0.000000

     crystal axes: (cart. coord. in units of alat)
               a(1) = (  -0.500000   0.000000   0.500000 )  
               a(2) = (   0.000000   0.500000   0.500000 )  
               a(3) = (  -0.500000   0.500000   0.000000 )  

     reciprocal axes: (cart. coord. in units 2 pi/alat)
               b(1) = ( -1.000000 -1.000000  1.000000 )  
               b(2) = (  1.000000  1.000000  1.000000 )  
               b(3) = ( -1.000000  1.000000 -1.000000 )  


     PseudoPot. # 1 for Si read from file:
     ./Si.vbc.UPF
     MD5 check sum: 7974b67c806a44bbea7c2da40a3c413a
     Pseudo is Norm-conserving, Zval =  4.0
     Generated by new atomic code, or converted to UPF format
     Using radial grid of  431 points,  2 beta functions with: 
                l(1) =   0
                l(2) =   1

     atomic species   valence    mass     pseudopotential
        Si             4.00    28.08600     Si( 1.00)

     24 Sym. Ops. (no inversion) found


                                    s                        frac. trans.

      isym =  1     identity                                     

 cryst.   s( 1) = (     1          0          0      )
                  (     0          1          0      )
                  (     0          0          1      )

 cart.    s( 1) = (  1.0000000  0.0000000  0.0000000 )
                  (  0.0000000  1.0000000  0.0000000 )
                  (  0.0000000  0.0000000  1.0000000 )


      isym =  2     180 deg rotation - cart. axis [0,0,1]        

 cryst.   s( 2) = (     0          1         -1      )
                  (     1          0         -1      )
                  (     0          0         -1      )

 cart.    s( 2) = ( -1.0000000  0.0000000  0.0000000 )
                  (  0.0000000 -1.0000000  0.0000000 )
                  (  0.0000000  0.0000000  1.0000000 )


      isym =  3     180 deg rotation - cart. axis [0,1,0]        

 cryst.   s( 3) = (    -1          0          0      )
                  (    -1          0          1      )
                  (    -1          1          0      )

 cart.    s( 3) = ( -1.0000000  0.0000000  0.0000000 )
                  (  0.0000000  1.0000000  0.0000000 )
                  (  0.0000000  0.0000000 -1.0000000 )


      isym =  4     180 deg rotation - cart. axis [1,0,0]        

 cryst.   s( 4) = (     0         -1          1      )
                  (     0         -1          0      )
                  (     1         -1          0      )

 cart.    s( 4) = (  1.0000000  0.0000000  0.0000000 )
                  (  0.0000000 -1.0000000  0.0000000 )
                  (  0.0000000  0.0000000 -1.0000000 )


      isym =  5     120 deg rotation - cart. axis [-1,-1,-1]     

 cryst.   s( 5) = (    -1          0          1      )
                  (    -1          1          0      )
                  (    -1          0          0      )

 cart.    s( 5) = (  0.0000000  1.0000000  0.0000000 )
                  (  0.0000000  0.0000000  1.0000000 )
                  (  1.0000000  0.0000000  0.0000000 )


      isym =  6     120 deg rotation - cart. axis [-1,1,1]       

 cryst.   s( 6) = (     0          1          0      )
                  (     0          0          1      )
                  (     1          0          0      )

 cart.    s( 6) = (  0.0000000 -1.0000000  0.0000000 )
                  (  0.0000000  0.0000000  1.0000000 )
                  ( -1.0000000  0.0000000  0.0000000 )


      isym =  7     120 deg rotation - cart. axis [1,1,-1]       

 cryst.   s( 7) = (     1          0         -1      )
                  (     0          0         -1      )
                  (     0          1         -1      )

 cart.    s( 7) = (  0.0000000  1.0000000  0.0000000 )
                  (  0.0000000  0.0000000 -1.0000000 )
                  ( -1.0000000  0.0000000  0.0000000 )


      isym =  8     120 deg rotation - cart. axis [1,-1,1]       

 cryst.   s( 8) = (     0         -1          0      )
                  (     1         -1          0      )
                  (     0         -1          1      )

 cart.    s( 8) = (  0.0000000 -1.0000000  0.0000000 )
                  (  0.0000000  0.0000000 -1.0000000 )
                  (  1.0000000  0.0000000  0.0000000 )


      isym =  9     120 deg rotation - cart. axis [1,1,1]        

 cryst.   s( 9) = (     0          0         -1      )
                  (     0          1         -1      )
                  (     1          0         -1      )

 cart.    s( 9) = (  0.0000000  0.0000000  1.0000000 )
                  (  1.0000000  0.0000000  0.0000000 )
                  (  0.0000000  1.0000000  0.0000000 )


      isym = 10     120 deg rotation - cart. axis [-1,1,-1]      

 cryst.   s(10) = (    -1          1          0      )
                  (    -1          0          0      )
                  (    -1          0          1      )

 cart.    s(10) = (  0.0000000  0.0000000  1.0000000 )
                  ( -1.0000000  0.0000000  0.0000000 )
                  (  0.0000000 -1.0000000  0.0000000 )


      isym = 11     120 deg rotation - cart. axis [1,-1,-1]      

 cryst.   s(11) = (     0          0          1      )
                  (     1          0          0      )
                  (     0          1          0      )

 cart.    s(11) = (  0.0000000  0.0000000 -1.0000000 )
                  ( -1.0000000  0.0000000  0.0000000 )
                  (  0.0000000  1.0000000  0.0000000 )


      isym = 12     120 deg rotation - cart. axis [-1,-1,1]      

 cryst.   s(12) = (     1         -1          0      )
                  (     0         -1          1      )
                  (     0         -1          0      )

 cart.    s(12) = (  0.0000000  0.0000000 -1.0000000 )
                  (  1.0000000  0.0000000  0.0000000 )
                  (  0.0000000 -1.0000000  0.0000000 )


      isym = 13     inv. 180 deg rotation - cart. axis [1,1,0]   

 cryst.   s(13) = (     0          1          0      )
                  (     1          0          0      )
                  (     0          0          1      )

 cart.    s(13) = (  0.0000000 -1.0000000  0.0000000 )
                  ( -1.0000000  0.0000000  0.0000000 )
                  (  0.0000000  0.0000000  1.0000000 )


      isym = 14     inv. 180 deg rotation - cart. axis [1,-1,0]  

 cryst.   s(14) = (     1          0         -1      )
                  (     0          1         -1      )
                  (     0          0         -1      )

 cart.    s(14) = (  0.0000000  1.0000000  0.0000000 )
                  (  1.0000000  0.0000000  0.0000000 )
                  (  0.0000000  0.0000000  1.0000000 )


      isym = 15     inv.  90 deg rotation - cart. axis [0,0,-1]  

 cryst.   s(15) = (     0         -1          0      )
                  (     0         -1          1      )
                  (     1         -1          0      )

 cart.    s(15) = (  0.0000000 -1.0000000  0.0000000 )
                  (  1.0000000  0.0000000  0.0000000 )
                  (  0.0000000  0.0000000 -1.0000000 )


      isym = 16     inv.  90 deg rotation - cart. axis [0,0,1]   

 cryst.   s(16) = (    -1          0          1      )
                  (    -1          0          0      )
                  (    -1          1          0      )

 cart.    s(16) = (  0.0000000  1.0000000  0.0000000 )
                  ( -1.0000000  0.0000000  0.0000000 )
                  (  0.0000000  0.0000000 -1.0000000 )


      isym = 17     inv. 180 deg rotation - cart. axis [1,0,1]   

 cryst.   s(17) = (     1          0          0      )
                  (     0          0          1      )
                  (     0          1          0      )

 cart.    s(17) = (  0.0000000  0.0000000 -1.0000000 )
                  (  0.0000000  1.0000000  0.0000000 )
                  ( -1.0000000  0.0000000  0.0000000 )


      isym = 18     inv. 180 deg rotation - cart. axis [-1,0,1]  

 cryst.   s(18) = (    -1          0          0      )
                  (    -1          1          0      )
                  (    -1          0          1      )

 cart.    s(18) = (  0.0000000  0.0000000  1.0000000 )
                  (  0.0000000  1.0000000  0.0000000 )
                  (  1.0000000  0.0000000  0.0000000 )


      isym = 19     inv.  90 deg rotation - cart. axis [0,1,0]   

 cryst.   s(19) = (     0         -1          1      )
                  (     1         -1          0      )
                  (     0         -1          0      )

 cart.    s(19) = (  0.0000000  0.0000000 -1.0000000 )
                  (  0.0000000 -1.0000000  0.0000000 )
                  (  1.0000000  0.0000000  0.0000000 )


      isym = 20     inv.  90 deg rotation - cart. axis [0,-1,0]  

 cryst.   s(20) = (     0          1         -1      )
                  (     0          0         -1      )
                  (     1          0         -1      )

 cart.    s(20) = (  0.0000000  0.0000000  1.0000000 )
                  (  0.0000000 -1.0000000  0.0000000 )
                  ( -1.0000000  0.0000000  0.0000000 )


      isym = 21     inv. 180 deg rotation - cart. axis [0,1,1]   

 cryst.   s(21) = (     1         -1          0      )
                  (     0         -1          0      )
                  (     0         -1          1      )

 cart.    s(21) = (  1.0000000  0.0000000  0.0000000 )
                  (  0.0000000  0.0000000 -1.0000000 )
                  (  0.0000000 -1.0000000  0.0000000 )


      isym = 22     inv. 180 deg rotation - cart. axis [0,1,-1]  

 cryst.   s(22) = (     0          0          1      )
                  (     0          1          0      )
                  (     1          0          0      )

 cart.    s(22) = (  1.0000000  0.0000000  0.0000000 )
                  (  0.0000000  0.0000000  1.0000000 )
                  (  0.0000000  1.0000000  0.0000000 )


      isym = 23     inv.  90 deg rotation - cart. axis [-1,0,0]  

 cryst.   s(23) = (     0          0         -1      )
                  (     1          0         -1      )
                  (     0          1         -1      )

 cart.    s(23) = ( -1.0000000  0.0000000  0.0000000 )
                  (  0.0000000  0.0000000 -1.0000000 )
                  (  0.0000000  1.0000000  0.0000000 )


      isym = 24     inv.  90 deg rotation - cart. axis [1,0,0]   

 cryst.   s(24) = (    -1          1          0      )
                  (    -1          0          1      )
                  (    -1          0          0      )

 cart.    s(24) = ( -1.0000000  0.0000000  0.0000000 )
                  (  0.0000000  0.0000000  1.0000000 )
                  (  0.0000000 -1.0000000  0.0000000 )


     point group T_d (-43m) 
     there are  5 classes
     the character table:

       E     8C3   3C2   6S4   6s_d 
A_1    1.00  1.00  1.00  1.00  1.00
A_2    1.00  1.00  1.00 -1.00 -1.00
E      2.00 -1.00  2.00  0.00  0.00
T_1    3.00  0.00 -1.00  1.00 -1.00
T_2    3.00  0.00 -1.00 -1.00  1.00

     the symmetry operations in each class:
     E        1
     3C2      2    3    4
     8C3      5    7    8    6   12    9   10   11
     6s_d    13   14   17   18   21   22
     6S4     15   16   20   19   23   24

   Cartesian axes

     site n.     atom                  positions (alat units)
         1           Si  tau(   1) = (   0.0000000   0.0000000   0.0000000  )
         2           Si  tau(   2) = (   0.2500000   0.2500000   0.2500000  )

   Crystallographic axes

     site n.     atom                  positions (cryst. coord.)
         1           Si  tau(   1) = (  0.0000000  0.0000000  0.0000000  )
         2           Si  tau(   2) = ( -0.2500000  0.7500000 -0.2500000  )

     number of k points=   455
                       cart. coord. in units 2pi/alat
        k(    1) = (   0.0000000   0.0000000   0.0000000), wk =   0.0001280
        k(    2) = (  -0.0400000   0.0400000  -0.0400000), wk =   0.0010240
        k(    3) = (  -0.0800000   0.0800000  -0.0800000), wk =   0.0010240
        k(    4) = (  -0.1200000   0.1200000  -0.1200000), wk =   0.0010240
        k(    5) = (  -0.1600000   0.1600000  -0.1600000), wk =   0.0010240
        k(    6) = (  -0.2000000   0.2000000  -0.2000000), wk =   0.0010240
        k(    7) = (  -0.2400000   0.2400000  -0.2400000), wk =   0.0010240
        k(    8) = (  -0.2800000   0.2800000  -0.2800000), wk =   0.0010240
        k(    9) = (  -0.3200000   0.3200000  -0.3200000), wk =   0.0010240
        k(   10) = (  -0.3600000   0.3600000  -0.3600000), wk =   0.0010240
        k(   11) = (  -0.4000000   0.4000000  -0.4000000), wk =   0.0010240
        k(   12) = (  -0.4400000   0.4400000  -0.4400000), wk =   0.0010240
        k(   13) = (  -0.4800000   0.4800000  -0.4800000), wk =   0.0010240
        k(   14) = (   0.0000000   0.0800000   0.0000000), wk =   0.0007680
        k(   15) = (  -0.0400000   0.1200000  -0.0400000), wk =   0.0030720
        k(   16) = (  -0.0800000   0.1600000  -0.0800000), wk =   0.0030720
        k(   17) = (  -0.1200000   0.2000000  -0.1200000), wk =   0.0030720
        k(   18) = (  -0.1600000   0.2400000  -0.1600000), wk =   0.0030720
        k(   19) = (  -0.2000000   0.2800000  -0.2000000), wk =   0.0030720
        k(   20) = (  -0.2400000   0.3200000  -0.2400000), wk =   0.0030720
        k(   21) = (  -0.2800000   0.3600000  -0.2800000), wk =   0.0030720
        k(   22) = (  -0.3200000   0.4000000  -0.3200000), wk =   0.0030720
        k(   23) = (  -0.3600000   0.4400000  -0.3600000), wk =   0.0030720
        k(   24) = (  -0.4000000   0.4800000  -0.4000000), wk =   0.0030720
        k(   25) = (  -0.4400000   0.5200000  -0.4400000), wk =   0.0030720
        k(   26) = (   0.5200000  -0.4400000   0.5200000), wk =   0.0030720
        k(   27) = (   0.4800000  -0.4000000   0.4800000), wk =   0.0030720
        k(   28) = (   0.4400000  -0.3600000   0.4400000), wk =   0.0030720
        k(   29) = (   0.4000000  -0.3200000   0.4000000), wk =   0.0030720
        k(   30) = (   0.3600000  -0.2800000   0.3600000), wk =   0.0030720
        k(   31) = (   0.3200000  -0.2400000   0.3200000), wk =   0.0030720
        k(   32) = (   0.2800000  -0.2000000   0.2800000), wk =   0.0030720
        k(   33) = (   0.2400000  -0.1600000   0.2400000), wk =   0.0030720
        k(   34) = (   0.2000000  -0.1200000   0.2000000), wk =   0.0030720
        k(   35) = (   0.1600000  -0.0800000   0.1600000), wk =   0.0030720
        k(   36) = (   0.1200000  -0.0400000   0.1200000), wk =   0.0030720
        k(   37) = (   0.0800000  -0.0000000   0.0800000), wk =   0.0015360
        k(   38) = (   0.0000000   0.1600000   0.0000000), wk =   0.0007680
        k(   39) = (  -0.0400000   0.2000000  -0.0400000), wk =   0.0030720
        k(   40) = (  -0.0800000   0.2400000  -0.0800000), wk =   0.0030720
        k(   41) = (  -0.1200000   0.2800000  -0.1200000), wk =   0.0030720
        k(   42) = (  -0.1600000   0.3200000  -0.1600000), wk =   0.0030720
        k(   43) = (  -0.2000000   0.3600000  -0.2000000), wk =   0.0030720
        k(   44) = (  -0.2400000   0.4000000  -0.2400000), wk =   0.0030720
        k(   45) = (  -0.2800000   0.4400000  -0.2800000), wk =   0.0030720
        k(   46) = (  -0.3200000   0.4800000  -0.3200000), wk =   0.0030720
        k(   47) = (  -0.3600000   0.5200000  -0.3600000), wk =   0.0030720
        k(   48) = (  -0.4000000   0.5600000  -0.4000000), wk =   0.0030720
        k(   49) = (   0.5600000  -0.4000000   0.5600000), wk =   0.0030720
        k(   50) = (   0.5200000  -0.3600000   0.5200000), wk =   0.0030720
        k(   51) = (   0.4800000  -0.3200000   0.4800000), wk =   0.0030720
        k(   52) = (   0.4400000  -0.2800000   0.4400000), wk =   0.0030720
        k(   53) = (   0.4000000  -0.2400000   0.4000000), wk =   0.0030720
        k(   54) = (   0.3600000  -0.2000000   0.3600000), wk =   0.0030720
        k(   55) = (   0.3200000  -0.1600000   0.3200000), wk =   0.0030720
        k(   56) = (   0.2800000  -0.1200000   0.2800000), wk =   0.0030720
        k(   57) = (   0.2400000  -0.0800000   0.2400000), wk =   0.0030720
        k(   58) = (   0.2000000  -0.0400000   0.2000000), wk =   0.0030720
        k(   59) = (   0.1600000   0.0000000   0.1600000), wk =   0.0015360
        k(   60) = (   0.0000000   0.2400000   0.0000000), wk =   0.0007680
        k(   61) = (  -0.0400000   0.2800000  -0.0400000), wk =   0.0030720
        k(   62) = (  -0.0800000   0.3200000  -0.0800000), wk =   0.0030720
        k(   63) = (  -0.1200000   0.3600000  -0.1200000), wk =   0.0030720
        k(   64) = (  -0.1600000   0.4000000  -0.1600000), wk =   0.0030720
        k(   65) = (  -0.2000000   0.4400000  -0.2000000), wk =   0.0030720
        k(   66) = (  -0.2400000   0.4800000  -0.2400000), wk =   0.0030720
        k(   67) = (  -0.2800000   0.5200000  -0.2800000), wk =   0.0030720
        k(   68) = (  -0.3200000   0.5600000  -0.3200000), wk =   0.0030720
        k(   69) = (  -0.3600000   0.6000000  -0.3600000), wk =   0.0030720
        k(   70) = (   0.6000000  -0.3600000   0.6000000), wk =   0.0030720
        k(   71) = (   0.5600000  -0.3200000   0.5600000), wk =   0.0030720
        k(   72) = (   0.5200000  -0.2800000   0.5200000), wk =   0.0030720
        k(   73) = (   0.4800000  -0.2400000   0.4800000), wk =   0.0030720
        k(   74) = (   0.4400000  -0.2000000   0.4400000), wk =   0.0030720
        k(   75) = (   0.4000000  -0.1600000   0.4000000), wk =   0.0030720
        k(   76) = (   0.3600000  -0.1200000   0.3600000), wk =   0.0030720
        k(   77) = (   0.3200000  -0.0800000   0.3200000), wk =   0.0030720
        k(   78) = (   0.2800000  -0.0400000   0.2800000), wk =   0.0030720
        k(   79) = (   0.2400000   0.0000000   0.2400000), wk =   0.0015360
        k(   80) = (   0.0000000   0.3200000   0.0000000), wk =   0.0007680
        k(   81) = (  -0.0400000   0.3600000  -0.0400000), wk =   0.0030720
        k(   82) = (  -0.0800000   0.4000000  -0.0800000), wk =   0.0030720
        k(   83) = (  -0.1200000   0.4400000  -0.1200000), wk =   0.0030720
        k(   84) = (  -0.1600000   0.4800000  -0.1600000), wk =   0.0030720
        k(   85) = (  -0.2000000   0.5200000  -0.2000000), wk =   0.0030720
        k(   86) = (  -0.2400000   0.5600000  -0.2400000), wk =   0.0030720
        k(   87) = (  -0.2800000   0.6000000  -0.2800000), wk =   0.0030720
        k(   88) = (  -0.3200000   0.6400000  -0.3200000), wk =   0.0030720
        k(   89) = (   0.6400000  -0.3200000   0.6400000), wk =   0.0030720
        k(   90) = (   0.6000000  -0.2800000   0.6000000), wk =   0.0030720
        k(   91) = (   0.5600000  -0.2400000   0.5600000), wk =   0.0030720
        k(   92) = (   0.5200000  -0.2000000   0.5200000), wk =   0.0030720
        k(   93) = (   0.4800000  -0.1600000   0.4800000), wk =   0.0030720
        k(   94) = (   0.4400000  -0.1200000   0.4400000), wk =   0.0030720
        k(   95) = (   0.4000000  -0.0800000   0.4000000), wk =   0.0030720
        k(   96) = (   0.3600000  -0.0400000   0.3600000), wk =   0.0030720
        k(   97) = (   0.3200000  -0.0000000   0.3200000), wk =   0.0015360
        k(   98) = (   0.0000000   0.4000000   0.0000000), wk =   0.0007680
        k(   99) = (  -0.0400000   0.4400000  -0.0400000), wk =   0.0030720
        k(  100) = (  -0.0800000   0.4800000  -0.0800000), wk =   0.0030720
        k(  101) = (  -0.1200000   0.5200000  -0.1200000), wk =   0.0030720
        k(  102) = (  -0.1600000   0.5600000  -0.1600000), wk =   0.0030720
        k(  103) = (  -0.2000000   0.6000000  -0.2000000), wk =   0.0030720
        k(  104) = (  -0.2400000   0.6400000  -0.2400000), wk =   0.0030720
        k(  105) = (  -0.2800000   0.6800000  -0.2800000), wk =   0.0030720
        k(  106) = (   0.6800000  -0.2800000   0.6800000), wk =   0.0030720
        k(  107) = (   0.6400000  -0.2400000   0.6400000), wk =   0.0030720
        k(  108) = (   0.6000000  -0.2000000   0.6000000), wk =   0.0030720
        k(  109) = (   0.5600000  -0.1600000   0.5600000), wk =   0.0030720
        k(  110) = (   0.5200000  -0.1200000   0.5200000), wk =   0.0030720
        k(  111) = (   0.4800000  -0.0800000   0.4800000), wk =   0.0030720
        k(  112) = (   0.4400000  -0.0400000   0.4400000), wk =   0.0030720
        k(  113) = (   0.4000000   0.0000000   0.4000000), wk =   0.0015360
        k(  114) = (   0.0000000   0.4800000   0.0000000), wk =   0.0007680
        k(  115) = (  -0.0400000   0.5200000  -0.0400000), wk =   0.0030720
        k(  116) = (  -0.0800000   0.5600000  -0.0800000), wk =   0.0030720
        k(  117) = (  -0.1200000   0.6000000  -0.1200000), wk =   0.0030720
        k(  118) = (  -0.1600000   0.6400000  -0.1600000), wk =   0.0030720
        k(  119) = (  -0.2000000   0.6800000  -0.2000000), wk =   0.0030720
        k(  120) = (  -0.2400000   0.7200000  -0.2400000), wk =   0.0030720
        k(  121) = (   0.7200000  -0.2400000   0.7200000), wk =   0.0030720
        k(  122) = (   0.6800000  -0.2000000   0.6800000), wk =   0.0030720
        k(  123) = (   0.6400000  -0.1600000   0.6400000), wk =   0.0030720
        k(  124) = (   0.6000000  -0.1200000   0.6000000), wk =   0.0030720
        k(  125) = (   0.5600000  -0.0800000   0.5600000), wk =   0.0030720
        k(  126) = (   0.5200000  -0.0400000   0.5200000), wk =   0.0030720
        k(  127) = (   0.4800000   0.0000000   0.4800000), wk =   0.0015360
        k(  128) = (   0.0000000   0.5600000   0.0000000), wk =   0.0007680
        k(  129) = (  -0.0400000   0.6000000  -0.0400000), wk =   0.0030720
        k(  130) = (  -0.0800000   0.6400000  -0.0800000), wk =   0.0030720
        k(  131) = (  -0.1200000   0.6800000  -0.1200000), wk =   0.0030720
        k(  132) = (  -0.1600000   0.7200000  -0.1600000), wk =   0.0030720
        k(  133) = (  -0.2000000   0.7600000  -0.2000000), wk =   0.0030720
        k(  134) = (   0.7600000  -0.2000000   0.7600000), wk =   0.0030720
        k(  135) = (   0.7200000  -0.1600000   0.7200000), wk =   0.0030720
        k(  136) = (   0.6800000  -0.1200000   0.6800000), wk =   0.0030720
        k(  137) = (   0.6400000  -0.0800000   0.6400000), wk =   0.0030720
        k(  138) = (   0.6000000  -0.0400000   0.6000000), wk =   0.0030720
        k(  139) = (   0.5600000   0.0000000   0.5600000), wk =   0.0015360
        k(  140) = (   0.0000000   0.6400000   0.0000000), wk =   0.0007680
        k(  141) = (  -0.0400000   0.6800000  -0.0400000), wk =   0.0030720
        k(  142) = (  -0.0800000   0.7200000  -0.0800000), wk =   0.0030720
        k(  143) = (  -0.1200000   0.7600000  -0.1200000), wk =   0.0030720
        k(  144) = (  -0.1600000   0.8000000  -0.1600000), wk =   0.0030720
        k(  145) = (   0.8000000  -0.1600000   0.8000000), wk =   0.0030720
        k(  146) = (   0.7600000  -0.1200000   0.7600000), wk =   0.0030720
        k(  147) = (   0.7200000  -0.0800000   0.7200000), wk =   0.0030720
        k(  148) = (   0.6800000  -0.0400000   0.6800000), wk =   0.0030720
        k(  149) = (   0.6400000   0.0000000   0.6400000), wk =   0.0015360
        k(  150) = (   0.0000000   0.7200000   0.0000000), wk =   0.0007680
        k(  151) = (  -0.0400000   0.7600000  -0.0400000), wk =   0.0030720
        k(  152) = (  -0.0800000   0.8000000  -0.0800000), wk =   0.0030720
        k(  153) = (  -0.1200000   0.8400000  -0.1200000), wk =   0.0030720
        k(  154) = (   0.8400000  -0.1200000   0.8400000), wk =   0.0030720
        k(  155) = (   0.8000000  -0.0800000   0.8000000), wk =   0.0030720
        k(  156) = (   0.7600000  -0.0400000   0.7600000), wk =   0.0030720
        k(  157) = (   0.7200000   0.0000000   0.7200000), wk =   0.0015360
        k(  158) = (   0.0000000   0.8000000   0.0000000), wk =   0.0007680
        k(  159) = (  -0.0400000   0.8400000  -0.0400000), wk =   0.0030720
        k(  160) = (  -0.0800000   0.8800000  -0.0800000), wk =   0.0030720
        k(  161) = (   0.8800000  -0.0800000   0.8800000), wk =   0.0030720
        k(  162) = (   0.8400000  -0.0400000   0.8400000), wk =   0.0030720
        k(  163) = (   0.8000000   0.0000000   0.8000000), wk =   0.0015360
        k(  164) = (   0.0000000   0.8800000   0.0000000), wk =   0.0007680
        k(  165) = (  -0.0400000   0.9200000  -0.0400000), wk =   0.0030720
        k(  166) = (   0.9200000  -0.0400000   0.9200000), wk =   0.0030720
        k(  167) = (   0.8800000   0.0000000   0.8800000), wk =   0.0015360
        k(  168) = (   0.0000000   0.9600000   0.0000000), wk =   0.0007680
        k(  169) = (   0.9600000   0.0000000   0.9600000), wk =   0.0015360
        k(  170) = (  -0.0800000   0.1600000   0.0000000), wk =   0.0030720
        k(  171) = (  -0.1200000   0.2000000  -0.0400000), wk =   0.0061440
        k(  172) = (  -0.1600000   0.2400000  -0.0800000), wk =   0.0061440
        k(  173) = (  -0.2000000   0.2800000  -0.1200000), wk =   0.0061440
        k(  174) = (  -0.2400000   0.3200000  -0.1600000), wk =   0.0061440
        k(  175) = (  -0.2800000   0.3600000  -0.2000000), wk =   0.0061440
        k(  176) = (  -0.3200000   0.4000000  -0.2400000), wk =   0.0061440
        k(  177) = (  -0.3600000   0.4400000  -0.2800000), wk =   0.0061440
        k(  178) = (  -0.4000000   0.4800000  -0.3200000), wk =   0.0061440
        k(  179) = (  -0.4400000   0.5200000  -0.3600000), wk =   0.0061440
        k(  180) = (   0.5200000  -0.4400000   0.6000000), wk =   0.0061440
        k(  181) = (  -0.0800000   0.2400000   0.0000000), wk =   0.0030720
        k(  182) = (  -0.1200000   0.2800000  -0.0400000), wk =   0.0061440
        k(  183) = (  -0.1600000   0.3200000  -0.0800000), wk =   0.0061440
        k(  184) = (  -0.2000000   0.3600000  -0.1200000), wk =   0.0061440
        k(  185) = (  -0.2400000   0.4000000  -0.1600000), wk =   0.0061440
        k(  186) = (  -0.2800000   0.4400000  -0.2000000), wk =   0.0061440
        k(  187) = (  -0.3200000   0.4800000  -0.2400000), wk =   0.0061440
        k(  188) = (  -0.3600000   0.5200000  -0.2800000), wk =   0.0061440
        k(  189) = (  -0.4000000   0.5600000  -0.3200000), wk =   0.0061440
        k(  190) = (   0.5600000  -0.4000000   0.6400000), wk =   0.0061440
        k(  191) = (   0.5200000  -0.3600000   0.6000000), wk =   0.0061440
        k(  192) = (   0.4800000  -0.3200000   0.5600000), wk =   0.0061440
        k(  193) = (   0.4400000  -0.2800000   0.5200000), wk =   0.0061440
        k(  194) = (   0.4000000  -0.2400000   0.4800000), wk =   0.0061440
        k(  195) = (   0.3600000  -0.2000000   0.4400000), wk =   0.0061440
        k(  196) = (   0.3200000  -0.1600000   0.4000000), wk =   0.0061440
        k(  197) = (   0.2800000  -0.1200000   0.3600000), wk =   0.0061440
        k(  198) = (   0.2400000  -0.0800000   0.3200000), wk =   0.0061440
        k(  199) = (   0.2000000  -0.0400000   0.2800000), wk =   0.0061440
        k(  200) = (   0.1600000   0.0000000   0.2400000), wk =   0.0030720
        k(  201) = (  -0.0800000   0.3200000   0.0000000), wk =   0.0030720
        k(  202) = (  -0.1200000   0.3600000  -0.0400000), wk =   0.0061440
        k(  203) = (  -0.1600000   0.4000000  -0.0800000), wk =   0.0061440
        k(  204) = (  -0.2000000   0.4400000  -0.1200000), wk =   0.0061440
        k(  205) = (  -0.2400000   0.4800000  -0.1600000), wk =   0.0061440
        k(  206) = (  -0.2800000   0.5200000  -0.2000000), wk =   0.0061440
        k(  207) = (  -0.3200000   0.5600000  -0.2400000), wk =   0.0061440
        k(  208) = (  -0.3600000   0.6000000  -0.2800000), wk =   0.0061440
        k(  209) = (   0.6000000  -0.3600000   0.6800000), wk =   0.0061440
        k(  210) = (   0.5600000  -0.3200000   0.6400000), wk =   0.0061440
        k(  211) = (   0.5200000  -0.2800000   0.6000000), wk =   0.0061440
        k(  212) = (   0.4800000  -0.2400000   0.5600000), wk =   0.0061440
        k(  213) = (   0.4400000  -0.2000000   0.5200000), wk =   0.0061440
        k(  214) = (   0.4000000  -0.1600000   0.4800000), wk =   0.0061440
        k(  215) = (   0.3600000  -0.1200000   0.4400000), wk =   0.0061440
        k(  216) = (   0.3200000  -0.0800000   0.4000000), wk =   0.0061440
        k(  217) = (   0.2800000  -0.0400000   0.3600000), wk =   0.0061440
        k(  218) = (   0.2400000   0.0000000   0.3200000), wk =   0.0030720
        k(  219) = (  -0.0800000   0.4000000   0.0000000), wk =   0.0030720
        k(  220) = (  -0.1200000   0.4400000  -0.0400000), wk =   0.0061440
        k(  221) = (  -0.1600000   0.4800000  -0.0800000), wk =   0.0061440
        k(  222) = (  -0.2000000   0.5200000  -0.1200000), wk =   0.0061440
        k(  223) = (  -0.2400000   0.5600000  -0.1600000), wk =   0.0061440
        k(  224) = (  -0.2800000   0.6000000  -0.2000000), wk =   0.0061440
        k(  225) = (  -0.3200000   0.6400000  -0.2400000), wk =   0.0061440
        k(  226) = (   0.6400000  -0.3200000   0.7200000), wk =   0.0061440
        k(  227) = (   0.6000000  -0.2800000   0.6800000), wk =   0.0061440
        k(  228) = (   0.5600000  -0.2400000   0.6400000), wk =   0.0061440
        k(  229) = (   0.5200000  -0.2000000   0.6000000), wk =   0.0061440
        k(  230) = (   0.4800000  -0.1600000   0.5600000), wk =   0.0061440
        k(  231) = (   0.4400000  -0.1200000   0.5200000), wk =   0.0061440
        k(  232) = (   0.4000000  -0.0800000   0.4800000), wk =   0.0061440
        k(  233) = (   0.3600000  -0.0400000   0.4400000), wk =   0.0061440
        k(  234) = (   0.3200000  -0.0000000   0.4000000), wk =   0.0030720
        k(  235) = (  -0.0800000   0.4800000  -0.0000000), wk =   0.0030720
        k(  236) = (  -0.1200000   0.5200000  -0.0400000), wk =   0.0061440
        k(  237) = (  -0.1600000   0.5600000  -0.0800000), wk =   0.0061440
        k(  238) = (  -0.2000000   0.6000000  -0.1200000), wk =   0.0061440
        k(  239) = (  -0.2400000   0.6400000  -0.1600000), wk =   0.0061440
        k(  240) = (  -0.2800000   0.6800000  -0.2000000), wk =   0.0061440
        k(  241) = (   0.6800000  -0.2800000   0.7600000), wk =   0.0061440
        k(  242) = (   0.6400000  -0.2400000   0.7200000), wk =   0.0061440
        k(  243) = (   0.6000000  -0.2000000   0.6800000), wk =   0.0061440
        k(  244) = (   0.5600000  -0.1600000   0.6400000), wk =   0.0061440
        k(  245) = (   0.5200000  -0.1200000   0.6000000), wk =   0.0061440
        k(  246) = (   0.4800000  -0.0800000   0.5600000), wk =   0.0061440
        k(  247) = (   0.4400000  -0.0400000   0.5200000), wk =   0.0061440
        k(  248) = (   0.4000000   0.0000000   0.4800000), wk =   0.0030720
        k(  249) = (  -0.0800000   0.5600000   0.0000000), wk =   0.0030720
        k(  250) = (  -0.1200000   0.6000000  -0.0400000), wk =   0.0061440
        k(  251) = (  -0.1600000   0.6400000  -0.0800000), wk =   0.0061440
        k(  252) = (  -0.2000000   0.6800000  -0.1200000), wk =   0.0061440
        k(  253) = (  -0.2400000   0.7200000  -0.1600000), wk =   0.0061440
        k(  254) = (   0.7200000  -0.2400000   0.8000000), wk =   0.0061440
        k(  255) = (   0.6800000  -0.2000000   0.7600000), wk =   0.0061440
        k(  256) = (   0.6400000  -0.1600000   0.7200000), wk =   0.0061440
        k(  257) = (   0.6000000  -0.1200000   0.6800000), wk =   0.0061440
        k(  258) = (   0.5600000  -0.0800000   0.6400000), wk =   0.0061440
        k(  259) = (   0.5200000  -0.0400000   0.6000000), wk =   0.0061440
        k(  260) = (   0.4800000   0.0000000   0.5600000), wk =   0.0030720
        k(  261) = (  -0.0800000   0.6400000   0.0000000), wk =   0.0030720
        k(  262) = (  -0.1200000   0.6800000  -0.0400000), wk =   0.0061440
        k(  263) = (  -0.1600000   0.7200000  -0.0800000), wk =   0.0061440
        k(  264) = (  -0.2000000   0.7600000  -0.1200000), wk =   0.0061440
        k(  265) = (   0.7600000  -0.2000000   0.8400000), wk =   0.0061440
        k(  266) = (   0.7200000  -0.1600000   0.8000000), wk =   0.0061440
        k(  267) = (   0.6800000  -0.1200000   0.7600000), wk =   0.0061440
        k(  268) = (   0.6400000  -0.0800000   0.7200000), wk =   0.0061440
        k(  269) = (   0.6000000  -0.0400000   0.6800000), wk =   0.0061440
        k(  270) = (   0.5600000   0.0000000   0.6400000), wk =   0.0030720
        k(  271) = (  -0.0800000   0.7200000  -0.0000000), wk =   0.0030720
        k(  272) = (  -0.1200000   0.7600000  -0.0400000), wk =   0.0061440
        k(  273) = (  -0.1600000   0.8000000  -0.0800000), wk =   0.0061440
        k(  274) = (   0.8000000  -0.1600000   0.8800000), wk =   0.0061440
        k(  275) = (   0.7600000  -0.1200000   0.8400000), wk =   0.0061440
        k(  276) = (   0.7200000  -0.0800000   0.8000000), wk =   0.0061440
        k(  277) = (   0.6800000  -0.0400000   0.7600000), wk =   0.0061440
        k(  278) = (   0.6400000   0.0000000   0.7200000), wk =   0.0030720
        k(  279) = (  -0.0800000   0.8000000   0.0000000), wk =   0.0030720
        k(  280) = (  -0.1200000   0.8400000  -0.0400000), wk =   0.0061440
        k(  281) = (   0.8400000  -0.1200000   0.9200000), wk =   0.0061440
        k(  282) = (   0.8000000  -0.0800000   0.8800000), wk =   0.0061440
        k(  283) = (   0.7600000  -0.0400000   0.8400000), wk =   0.0061440
        k(  284) = (   0.7200000   0.0000000   0.8000000), wk =   0.0030720
        k(  285) = (  -0.0800000   0.8800000   0.0000000), wk =   0.0030720
        k(  286) = (   0.8800000  -0.0800000   0.9600000), wk =   0.0061440
        k(  287) = (   0.8400000  -0.0400000   0.9200000), wk =   0.0061440
        k(  288) = (   0.8000000   0.0000000   0.8800000), wk =   0.0030720
        k(  289) = (   0.9200000  -0.0400000   1.0000000), wk =   0.0030720
        k(  290) = (   0.8800000   0.0000000   0.9600000), wk =   0.0030720
        k(  291) = (  -0.1600000   0.3200000   0.0000000), wk =   0.0030720
        k(  292) = (  -0.2000000   0.3600000  -0.0400000), wk =   0.0061440
        k(  293) = (  -0.2400000   0.4000000  -0.0800000), wk =   0.0061440
        k(  294) = (  -0.2800000   0.4400000  -0.1200000), wk =   0.0061440
        k(  295) = (  -0.3200000   0.4800000  -0.1600000), wk =   0.0061440
        k(  296) = (  -0.3600000   0.5200000  -0.2000000), wk =   0.0061440
        k(  297) = (  -0.4000000   0.5600000  -0.2400000), wk =   0.0061440
        k(  298) = (   0.5600000  -0.4000000   0.7200000), wk =   0.0061440
        k(  299) = (   0.5200000  -0.3600000   0.6800000), wk =   0.0061440
        k(  300) = (  -0.1600000   0.4000000   0.0000000), wk =   0.0030720
        k(  301) = (  -0.2000000   0.4400000  -0.0400000), wk =   0.0061440
        k(  302) = (  -0.2400000   0.4800000  -0.0800000), wk =   0.0061440
        k(  303) = (  -0.2800000   0.5200000  -0.1200000), wk =   0.0061440
        k(  304) = (  -0.3200000   0.5600000  -0.1600000), wk =   0.0061440
        k(  305) = (  -0.3600000   0.6000000  -0.2000000), wk =   0.0061440
        k(  306) = (   0.6000000  -0.3600000   0.7600000), wk =   0.0061440
        k(  307) = (   0.5600000  -0.3200000   0.7200000), wk =   0.0061440
        k(  308) = (   0.5200000  -0.2800000   0.6800000), wk =   0.0061440
        k(  309) = (   0.4800000  -0.2400000   0.6400000), wk =   0.0061440
        k(  310) = (   0.4400000  -0.2000000   0.6000000), wk =   0.0061440
        k(  311) = (   0.4000000  -0.1600000   0.5600000), wk =   0.0061440
        k(  312) = (   0.3600000  -0.1200000   0.5200000), wk =   0.0061440
        k(  313) = (   0.3200000  -0.0800000   0.4800000), wk =   0.0061440
        k(  314) = (   0.2800000  -0.0400000   0.4400000), wk =   0.0061440
        k(  315) = (   0.2400000   0.0000000   0.4000000), wk =   0.0030720
        k(  316) = (  -0.1600000   0.4800000   0.0000000), wk =   0.0030720
        k(  317) = (  -0.2000000   0.5200000  -0.0400000), wk =   0.0061440
        k(  318) = (  -0.2400000   0.5600000  -0.0800000), wk =   0.0061440
        k(  319) = (  -0.2800000   0.6000000  -0.1200000), wk =   0.0061440
        k(  320) = (  -0.3200000   0.6400000  -0.1600000), wk =   0.0061440
        k(  321) = (   0.6400000  -0.3200000   0.8000000), wk =   0.0061440
        k(  322) = (   0.6000000  -0.2800000   0.7600000), wk =   0.0061440
        k(  323) = (   0.5600000  -0.2400000   0.7200000), wk =   0.0061440
        k(  324) = (   0.5200000  -0.2000000   0.6800000), wk =   0.0061440
        k(  325) = (   0.4800000  -0.1600000   0.6400000), wk =   0.0061440
        k(  326) = (   0.4400000  -0.1200000   0.6000000), wk =   0.0061440
        k(  327) = (   0.4000000  -0.0800000   0.5600000), wk =   0.0061440
        k(  328) = (   0.3600000  -0.0400000   0.5200000), wk =   0.0061440
        k(  329) = (   0.3200000  -0.0000000   0.4800000), wk =   0.0030720
        k(  330) = (  -0.1600000   0.5600000   0.0000000), wk =   0.0030720
        k(  331) = (  -0.2000000   0.6000000  -0.0400000), wk =   0.0061440
        k(  332) = (  -0.2400000   0.6400000  -0.0800000), wk =   0.0061440
        k(  333) = (  -0.2800000   0.6800000  -0.1200000), wk =   0.0061440
        k(  334) = (   0.6800000  -0.2800000   0.8400000), wk =   0.0061440
        k(  335) = (   0.6400000  -0.2400000   0.8000000), wk =   0.0061440
        k(  336) = (   0.6000000  -0.2000000   0.7600000), wk =   0.0061440
        k(  337) = (   0.5600000  -0.1600000   0.7200000), wk =   0.0061440
        k(  338) = (   0.5200000  -0.1200000   0.6800000), wk =   0.0061440
        k(  339) = (   0.4800000  -0.0800000   0.6400000), wk =   0.0061440
        k(  340) = (   0.4400000  -0.0400000   0.6000000), wk =   0.0061440
        k(  341) = (   0.4000000   0.0000000   0.5600000), wk =   0.0030720
        k(  342) = (  -0.1600000   0.6400000   0.0000000), wk =   0.0030720
        k(  343) = (  -0.2000000   0.6800000  -0.0400000), wk =   0.0061440
        k(  344) = (  -0.2400000   0.7200000  -0.0800000), wk =   0.0061440
        k(  345) = (   0.7200000  -0.2400000   0.8800000), wk =   0.0061440
        k(  346) = (   0.6800000  -0.2000000   0.8400000), wk =   0.0061440
        k(  347) = (   0.6400000  -0.1600000   0.8000000), wk =   0.0061440
        k(  348) = (   0.6000000  -0.1200000   0.7600000), wk =   0.0061440
        k(  349) = (   0.5600000  -0.0800000   0.7200000), wk =   0.0061440
        k(  350) = (   0.5200000  -0.0400000   0.6800000), wk =   0.0061440
        k(  351) = (   0.4800000   0.0000000   0.6400000), wk =   0.0030720
        k(  352) = (  -0.1600000   0.7200000   0.0000000), wk =   0.0030720
        k(  353) = (  -0.2000000   0.7600000  -0.0400000), wk =   0.0061440
        k(  354) = (   0.7600000  -0.2000000   0.9200000), wk =   0.0061440
        k(  355) = (   0.7200000  -0.1600000   0.8800000), wk =   0.0061440
        k(  356) = (   0.6800000  -0.1200000   0.8400000), wk =   0.0061440
        k(  357) = (   0.6400000  -0.0800000   0.8000000), wk =   0.0061440
        k(  358) = (   0.6000000  -0.0400000   0.7600000), wk =   0.0061440
        k(  359) = (   0.5600000  -0.0000000   0.7200000), wk =   0.0030720
        k(  360) = (  -0.1600000   0.8000000   0.0000000), wk =   0.0030720
        k(  361) = (   0.8000000  -0.1600000   0.9600000), wk =   0.0061440
        k(  362) = (   0.7600000  -0.1200000   0.9200000), wk =   0.0061440
        k(  363) = (   0.7200000  -0.0800000   0.8800000), wk =   0.0061440
        k(  364) = (   0.6800000  -0.0400000   0.8400000), wk =   0.0061440
        k(  365) = (   0.6400000   0.0000000   0.8000000), wk =   0.0030720
        k(  366) = (   0.8400000  -0.1200000   1.0000000), wk =   0.0030720
        k(  367) = (   0.8000000  -0.0800000   0.9600000), wk =   0.0061440
        k(  368) = (   0.7600000  -0.0400000   0.9200000), wk =   0.0061440
        k(  369) = (   0.7200000   0.0000000   0.8800000), wk =   0.0030720
        k(  370) = (   0.8400000  -0.0400000   1.0000000), wk =   0.0030720
        k(  371) = (   0.8000000  -0.0000000   0.9600000), wk =   0.0030720
        k(  372) = (  -0.2400000   0.4800000   0.0000000), wk =   0.0030720
        k(  373) = (  -0.2800000   0.5200000  -0.0400000), wk =   0.0061440
        k(  374) = (  -0.3200000   0.5600000  -0.0800000), wk =   0.0061440
        k(  375) = (  -0.3600000   0.6000000  -0.1200000), wk =   0.0061440
        k(  376) = (   0.6000000  -0.3600000   0.8400000), wk =   0.0061440
        k(  377) = (   0.5600000  -0.3200000   0.8000000), wk =   0.0061440
        k(  378) = (   0.5200000  -0.2800000   0.7600000), wk =   0.0061440
        k(  379) = (  -0.2400000   0.5600000   0.0000000), wk =   0.0030720
        k(  380) = (  -0.2800000   0.6000000  -0.0400000), wk =   0.0061440
        k(  381) = (  -0.3200000   0.6400000  -0.0800000), wk =   0.0061440
        k(  382) = (   0.6400000  -0.3200000   0.8800000), wk =   0.0061440
        k(  383) = (   0.6000000  -0.2800000   0.8400000), wk =   0.0061440
        k(  384) = (   0.5600000  -0.2400000   0.8000000), wk =   0.0061440
        k(  385) = (   0.5200000  -0.2000000   0.7600000), wk =   0.0061440
        k(  386) = (   0.4800000  -0.1600000   0.7200000), wk =   0.0061440
        k(  387) = (   0.4400000  -0.1200000   0.6800000), wk =   0.0061440
        k(  388) = (   0.4000000  -0.0800000   0.6400000), wk =   0.0061440
        k(  389) = (   0.3600000  -0.0400000   0.6000000), wk =   0.0061440
        k(  390) = (   0.3200000   0.0000000   0.5600000), wk =   0.0030720
        k(  391) = (  -0.2400000   0.6400000   0.0000000), wk =   0.0030720
        k(  392) = (  -0.2800000   0.6800000  -0.0400000), wk =   0.0061440
        k(  393) = (   0.6800000  -0.2800000   0.9200000), wk =   0.0061440
        k(  394) = (   0.6400000  -0.2400000   0.8800000), wk =   0.0061440
        k(  395) = (   0.6000000  -0.2000000   0.8400000), wk =   0.0061440
        k(  396) = (   0.5600000  -0.1600000   0.8000000), wk =   0.0061440
        k(  397) = (   0.5200000  -0.1200000   0.7600000), wk =   0.0061440
        k(  398) = (   0.4800000  -0.0800000   0.7200000), wk =   0.0061440
        k(  399) = (   0.4400000  -0.0400000   0.6800000), wk =   0.0061440
        k(  400) = (   0.4000000   0.0000000   0.6400000), wk =   0.0030720
        k(  401) = (  -0.2400000   0.7200000   0.0000000), wk =   0.0030720
        k(  402) = (   0.7200000  -0.2400000   0.9600000), wk =   0.0061440
        k(  403) = (   0.6800000  -0.2000000   0.9200000), wk =   0.0061440
        k(  404) = (   0.6400000  -0.1600000   0.8800000), wk =   0.0061440
        k(  405) = (   0.6000000  -0.1200000   0.8400000), wk =   0.0061440
        k(  406) = (   0.5600000  -0.0800000   0.8000000), wk =   0.0061440
        k(  407) = (   0.5200000  -0.0400000   0.7600000), wk =   0.0061440
        k(  408) = (   0.4800000   0.0000000   0.7200000), wk =   0.0030720
        k(  409) = (   0.7600000  -0.2000000   1.0000000), wk =   0.0030720
        k(  410) = (   0.7200000  -0.1600000   0.9600000), wk =   0.0061440
        k(  411) = (   0.6800000  -0.1200000   0.9200000), wk =   0.0061440
        k(  412) = (   0.6400000  -0.0800000   0.8800000), wk =   0.0061440
        k(  413) = (   0.6000000  -0.0400000   0.8400000), wk =   0.0061440
        k(  414) = (   0.5600000   0.0000000   0.8000000), wk =   0.0030720
        k(  415) = (   0.7600000  -0.1200000   1.0000000), wk =   0.0030720
        k(  416) = (   0.7200000  -0.0800000   0.9600000), wk =   0.0061440
        k(  417) = (   0.6800000  -0.0400000   0.9200000), wk =   0.0061440
        k(  418) = (   0.6400000   0.0000000   0.8800000), wk =   0.0030720
        k(  419) = (   0.7600000  -0.0400000   1.0000000), wk =   0.0030720
        k(  420) = (   0.7200000   0.0000000   0.9600000), wk =   0.0030720
        k(  421) = (  -0.3200000   0.6400000   0.0000000), wk =   0.0030720
        k(  422) = (   0.6400000  -0.3200000   0.9600000), wk =   0.0061440
        k(  423) = (   0.6000000  -0.2800000   0.9200000), wk =   0.0061440
        k(  424) = (   0.5600000  -0.2400000   0.8800000), wk =   0.0061440
        k(  425) = (   0.5200000  -0.2000000   0.8400000), wk =   0.0061440
        k(  426) = (   0.6800000  -0.2800000   1.0000000), wk =   0.0030720
        k(  427) = (   0.6400000  -0.2400000   0.9600000), wk =   0.0061440
        k(  428) = (   0.6000000  -0.2000000   0.9200000), wk =   0.0061440
        k(  429) = (   0.5600000  -0.1600000   0.8800000), wk =   0.0061440
        k(  430) = (   0.5200000  -0.1200000   0.8400000), wk =   0.0061440
        k(  431) = (   0.4800000  -0.0800000   0.8000000), wk =   0.0061440
        k(  432) = (   0.4400000  -0.0400000   0.7600000), wk =   0.0061440
        k(  433) = (   0.4000000   0.0000000   0.7200000), wk =   0.0030720
        k(  434) = (   0.6800000  -0.2000000   1.0000000), wk =   0.0030720
        k(  435) = (   0.6400000  -0.1600000   0.9600000), wk =   0.0061440
        k(  436) = (   0.6000000  -0.1200000   0.9200000), wk =   0.0061440
        k(  437) = (   0.5600000  -0.0800000   0.8800000), wk =   0.0061440
        k(  438) = (   0.5200000  -0.0400000   0.8400000), wk =   0.0061440
        k(  439) = (   0.4800000   0.0000000   0.8000000), wk =   0.0030720
        k(  440) = (   0.6800000  -0.1200000   1.0000000), wk =   0.0030720
        k(  441) = (   0.6400000  -0.0800000   0.9600000), wk =   0.0061440
        k(  442) = (   0.6000000  -0.0400000   0.9200000), wk =   0.0061440
        k(  443) = (   0.5600000   0.0000000   0.8800000), wk =   0.0030720
        k(  444) = (   0.6800000  -0.0400000   1.0000000), wk =   0.0030720
        k(  445) = (   0.6400000   0.0000000   0.9600000), wk =   0.0030720
        k(  446) = (   0.6000000  -0.2000000   1.0000000), wk =   0.0030720
        k(  447) = (   0.5600000  -0.1600000   0.9600000), wk =   0.0061440
        k(  448) = (   0.5200000  -0.1200000   0.9200000), wk =   0.0061440
        k(  449) = (   0.6000000  -0.1200000   1.0000000), wk =   0.0030720
        k(  450) = (   0.5600000  -0.0800000   0.9600000), wk =   0.0061440
        k(  451) = (   0.5200000  -0.0400000   0.9200000), wk =   0.0061440
        k(  452) = (   0.4800000   0.0000000   0.8800000), wk =   0.0030720
        k(  453) = (   0.6000000  -0.0400000   1.0000000), wk =   0.0030720
        k(  454) = (   0.5600000  -0.0000000   0.9600000), wk =   0.0030720
        k(  455) = (   0.5200000  -0.0400000   1.0000000), wk =   0.0030720

                       cryst. coord.
        k(    1) = (   0.0000000   0.0000000   0.0000000), wk =   0.0001280
        k(    2) = (   0.0000000   0.0000000   0.0400000), wk =   0.0010240
        k(    3) = (   0.0000000   0.0000000   0.0800000), wk =   0.0010240
        k(    4) = (   0.0000000   0.0000000   0.1200000), wk =   0.0010240
        k(    5) = (   0.0000000   0.0000000   0.1600000), wk =   0.0010240
        k(    6) = (   0.0000000   0.0000000   0.2000000), wk =   0.0010240
        k(    7) = (   0.0000000   0.0000000   0.2400000), wk =   0.0010240
        k(    8) = (   0.0000000   0.0000000   0.2800000), wk =   0.0010240
        k(    9) = (   0.0000000   0.0000000   0.3200000), wk =   0.0010240
        k(   10) = (   0.0000000   0.0000000   0.3600000), wk =   0.0010240
        k(   11) = (   0.0000000   0.0000000   0.4000000), wk =   0.0010240
        k(   12) = (   0.0000000   0.0000000   0.4400000), wk =   0.0010240
        k(   13) = (   0.0000000   0.0000000   0.4800000), wk =   0.0010240
        k(   14) = (   0.0000000   0.0400000   0.0400000), wk =   0.0007680
        k(   15) = (   0.0000000   0.0400000   0.0800000), wk =   0.0030720
        k(   16) = (   0.0000000   0.0400000   0.1200000), wk =   0.0030720
        k(   17) = (   0.0000000   0.0400000   0.1600000), wk =   0.0030720
        k(   18) = (   0.0000000   0.0400000   0.2000000), wk =   0.0030720
        k(   19) = (   0.0000000   0.0400000   0.2400000), wk =   0.0030720
        k(   20) = (   0.0000000   0.0400000   0.2800000), wk =   0.0030720
        k(   21) = (   0.0000000   0.0400000   0.3200000), wk =   0.0030720
        k(   22) = (   0.0000000   0.0400000   0.3600000), wk =   0.0030720
        k(   23) = (   0.0000000   0.0400000   0.4000000), wk =   0.0030720
        k(   24) = (   0.0000000   0.0400000   0.4400000), wk =   0.0030720
        k(   25) = (   0.0000000   0.0400000   0.4800000), wk =   0.0030720
        k(   26) = (   0.0000000   0.0400000  -0.4800000), wk =   0.0030720
        k(   27) = (   0.0000000   0.0400000  -0.4400000), wk =   0.0030720
        k(   28) = (   0.0000000   0.0400000  -0.4000000), wk =   0.0030720
        k(   29) = (   0.0000000   0.0400000  -0.3600000), wk =   0.0030720
        k(   30) = (   0.0000000   0.0400000  -0.3200000), wk =   0.0030720
        k(   31) = (   0.0000000   0.0400000  -0.2800000), wk =   0.0030720
        k(   32) = (   0.0000000   0.0400000  -0.2400000), wk =   0.0030720
        k(   33) = (   0.0000000   0.0400000  -0.2000000), wk =   0.0030720
        k(   34) = (   0.0000000   0.0400000  -0.1600000), wk =   0.0030720
        k(   35) = (   0.0000000   0.0400000  -0.1200000), wk =   0.0030720
        k(   36) = (   0.0000000   0.0400000  -0.0800000), wk =   0.0030720
        k(   37) = (   0.0000000   0.0400000  -0.0400000), wk =   0.0015360
        k(   38) = (   0.0000000   0.0800000   0.0800000), wk =   0.0007680
        k(   39) = (   0.0000000   0.0800000   0.1200000), wk =   0.0030720
        k(   40) = (   0.0000000   0.0800000   0.1600000), wk =   0.0030720
        k(   41) = (   0.0000000   0.0800000   0.2000000), wk =   0.0030720
        k(   42) = (   0.0000000   0.0800000   0.2400000), wk =   0.0030720
        k(   43) = (   0.0000000   0.0800000   0.2800000), wk =   0.0030720
        k(   44) = (   0.0000000   0.0800000   0.3200000), wk =   0.0030720
        k(   45) = (   0.0000000   0.0800000   0.3600000), wk =   0.0030720
        k(   46) = (   0.0000000   0.0800000   0.4000000), wk =   0.0030720
        k(   47) = (   0.0000000   0.0800000   0.4400000), wk =   0.0030720
        k(   48) = (   0.0000000   0.0800000   0.4800000), wk =   0.0030720
        k(   49) = (   0.0000000   0.0800000  -0.4800000), wk =   0.0030720
        k(   50) = (   0.0000000   0.0800000  -0.4400000), wk =   0.0030720
        k(   51) = (   0.0000000   0.0800000  -0.4000000), wk =   0.0030720
        k(   52) = (   0.0000000   0.0800000  -0.3600000), wk =   0.0030720
        k(   53) = (   0.0000000   0.0800000  -0.3200000), wk =   0.0030720
        k(   54) = (   0.0000000   0.0800000  -0.2800000), wk =   0.0030720
        k(   55) = (   0.0000000   0.0800000  -0.2400000), wk =   0.0030720
        k(   56) = (   0.0000000   0.0800000  -0.2000000), wk =   0.0030720
        k(   57) = (   0.0000000   0.0800000  -0.1600000), wk =   0.0030720
        k(   58) = (   0.0000000   0.0800000  -0.1200000), wk =   0.0030720
        k(   59) = (   0.0000000   0.0800000  -0.0800000), wk =   0.0015360
        k(   60) = (   0.0000000   0.1200000   0.1200000), wk =   0.0007680
        k(   61) = (   0.0000000   0.1200000   0.1600000), wk =   0.0030720
        k(   62) = (   0.0000000   0.1200000   0.2000000), wk =   0.0030720
        k(   63) = (   0.0000000   0.1200000   0.2400000), wk =   0.0030720
        k(   64) = (   0.0000000   0.1200000   0.2800000), wk =   0.0030720
        k(   65) = (   0.0000000   0.1200000   0.3200000), wk =   0.0030720
        k(   66) = (   0.0000000   0.1200000   0.3600000), wk =   0.0030720
        k(   67) = (   0.0000000   0.1200000   0.4000000), wk =   0.0030720
        k(   68) = (   0.0000000   0.1200000   0.4400000), wk =   0.0030720
        k(   69) = (   0.0000000   0.1200000   0.4800000), wk =   0.0030720
        k(   70) = (   0.0000000   0.1200000  -0.4800000), wk =   0.0030720
        k(   71) = (   0.0000000   0.1200000  -0.4400000), wk =   0.0030720
        k(   72) = (   0.0000000   0.1200000  -0.4000000), wk =   0.0030720
        k(   73) = (   0.0000000   0.1200000  -0.3600000), wk =   0.0030720
        k(   74) = (   0.0000000   0.1200000  -0.3200000), wk =   0.0030720
        k(   75) = (   0.0000000   0.1200000  -0.2800000), wk =   0.0030720
        k(   76) = (   0.0000000   0.1200000  -0.2400000), wk =   0.0030720
        k(   77) = (   0.0000000   0.1200000  -0.2000000), wk =   0.0030720
        k(   78) = (   0.0000000   0.1200000  -0.1600000), wk =   0.0030720
        k(   79) = (   0.0000000   0.1200000  -0.1200000), wk =   0.0015360
        k(   80) = (   0.0000000   0.1600000   0.1600000), wk =   0.0007680
        k(   81) = (   0.0000000   0.1600000   0.2000000), wk =   0.0030720
        k(   82) = (   0.0000000   0.1600000   0.2400000), wk =   0.0030720
        k(   83) = (   0.0000000   0.1600000   0.2800000), wk =   0.0030720
        k(   84) = (   0.0000000   0.1600000   0.3200000), wk =   0.0030720
        k(   85) = (   0.0000000   0.1600000   0.3600000), wk =   0.0030720
        k(   86) = (   0.0000000   0.1600000   0.4000000), wk =   0.0030720
        k(   87) = (   0.0000000   0.1600000   0.4400000), wk =   0.0030720
        k(   88) = (   0.0000000   0.1600000   0.4800000), wk =   0.0030720
        k(   89) = (   0.0000000   0.1600000  -0.4800000), wk =   0.0030720
        k(   90) = (   0.0000000   0.1600000  -0.4400000), wk =   0.0030720
        k(   91) = (   0.0000000   0.1600000  -0.4000000), wk =   0.0030720
        k(   92) = (   0.0000000   0.1600000  -0.3600000), wk =   0.0030720
        k(   93) = (   0.0000000   0.1600000  -0.3200000), wk =   0.0030720
        k(   94) = (   0.0000000   0.1600000  -0.2800000), wk =   0.0030720
        k(   95) = (   0.0000000   0.1600000  -0.2400000), wk =   0.0030720
        k(   96) = (   0.0000000   0.1600000  -0.2000000), wk =   0.0030720
        k(   97) = (   0.0000000   0.1600000  -0.1600000), wk =   0.0015360
        k(   98) = (   0.0000000   0.2000000   0.2000000), wk =   0.0007680
        k(   99) = (   0.0000000   0.2000000   0.2400000), wk =   0.0030720
        k(  100) = (   0.0000000   0.2000000   0.2800000), wk =   0.0030720
        k(  101) = (   0.0000000   0.2000000   0.3200000), wk =   0.0030720
        k(  102) = (   0.0000000   0.2000000   0.3600000), wk =   0.0030720
        k(  103) = (   0.0000000   0.2000000   0.4000000), wk =   0.0030720
        k(  104) = (   0.0000000   0.2000000   0.4400000), wk =   0.0030720
        k(  105) = (   0.0000000   0.2000000   0.4800000), wk =   0.0030720
        k(  106) = (   0.0000000   0.2000000  -0.4800000), wk =   0.0030720
        k(  107) = (   0.0000000   0.2000000  -0.4400000), wk =   0.0030720
        k(  108) = (   0.0000000   0.2000000  -0.4000000), wk =   0.0030720
        k(  109) = (   0.0000000   0.2000000  -0.3600000), wk =   0.0030720
        k(  110) = (   0.0000000   0.2000000  -0.3200000), wk =   0.0030720
        k(  111) = (   0.0000000   0.2000000  -0.2800000), wk =   0.0030720
        k(  112) = (   0.0000000   0.2000000  -0.2400000), wk =   0.0030720
        k(  113) = (   0.0000000   0.2000000  -0.2000000), wk =   0.0015360
        k(  114) = (   0.0000000   0.2400000   0.2400000), wk =   0.0007680
        k(  115) = (   0.0000000   0.2400000   0.2800000), wk =   0.0030720
        k(  116) = (   0.0000000   0.2400000   0.3200000), wk =   0.0030720
        k(  117) = (   0.0000000   0.2400000   0.3600000), wk =   0.0030720
        k(  118) = (   0.0000000   0.2400000   0.4000000), wk =   0.0030720
        k(  119) = (   0.0000000   0.2400000   0.4400000), wk =   0.0030720
        k(  120) = (   0.0000000   0.2400000   0.4800000), wk =   0.0030720
        k(  121) = (   0.0000000   0.2400000  -0.4800000), wk =   0.0030720
        k(  122) = (   0.0000000   0.2400000  -0.4400000), wk =   0.0030720
        k(  123) = (   0.0000000   0.2400000  -0.4000000), wk =   0.0030720
        k(  124) = (   0.0000000   0.2400000  -0.3600000), wk =   0.0030720
        k(  125) = (   0.0000000   0.2400000  -0.3200000), wk =   0.0030720
        k(  126) = (   0.0000000   0.2400000  -0.2800000), wk =   0.0030720
        k(  127) = (   0.0000000   0.2400000  -0.2400000), wk =   0.0015360
        k(  128) = (   0.0000000   0.2800000   0.2800000), wk =   0.0007680
        k(  129) = (   0.0000000   0.2800000   0.3200000), wk =   0.0030720
        k(  130) = (   0.0000000   0.2800000   0.3600000), wk =   0.0030720
        k(  131) = (   0.0000000   0.2800000   0.4000000), wk =   0.0030720
        k(  132) = (   0.0000000   0.2800000   0.4400000), wk =   0.0030720
        k(  133) = (   0.0000000   0.2800000   0.4800000), wk =   0.0030720
        k(  134) = (   0.0000000   0.2800000  -0.4800000), wk =   0.0030720
        k(  135) = (   0.0000000   0.2800000  -0.4400000), wk =   0.0030720
        k(  136) = (   0.0000000   0.2800000  -0.4000000), wk =   0.0030720
        k(  137) = (   0.0000000   0.2800000  -0.3600000), wk =   0.0030720
        k(  138) = (   0.0000000   0.2800000  -0.3200000), wk =   0.0030720
        k(  139) = (   0.0000000   0.2800000  -0.2800000), wk =   0.0015360
        k(  140) = (   0.0000000   0.3200000   0.3200000), wk =   0.0007680
        k(  141) = (   0.0000000   0.3200000   0.3600000), wk =   0.0030720
        k(  142) = (   0.0000000   0.3200000   0.4000000), wk =   0.0030720
        k(  143) = (   0.0000000   0.3200000   0.4400000), wk =   0.0030720
        k(  144) = (   0.0000000   0.3200000   0.4800000), wk =   0.0030720
        k(  145) = (   0.0000000   0.3200000  -0.4800000), wk =   0.0030720
        k(  146) = (   0.0000000   0.3200000  -0.4400000), wk =   0.0030720
        k(  147) = (   0.0000000   0.3200000  -0.4000000), wk =   0.0030720
        k(  148) = (   0.0000000   0.3200000  -0.3600000), wk =   0.0030720
        k(  149) = (   0.0000000   0.3200000  -0.3200000), wk =   0.0015360
        k(  150) = (   0.0000000   0.3600000   0.3600000), wk =   0.0007680
        k(  151) = (   0.0000000   0.3600000   0.4000000), wk =   0.0030720
        k(  152) = (   0.0000000   0.3600000   0.4400000), wk =   0.0030720
        k(  153) = (   0.0000000   0.3600000   0.4800000), wk =   0.0030720
        k(  154) = (   0.0000000   0.3600000  -0.4800000), wk =   0.0030720
        k(  155) = (   0.0000000   0.3600000  -0.4400000), wk =   0.0030720
        k(  156) = (   0.0000000   0.3600000  -0.4000000), wk =   0.0030720
        k(  157) = (   0.0000000   0.3600000  -0.3600000), wk =   0.0015360
        k(  158) = (   0.0000000   0.4000000   0.4000000), wk =   0.0007680
        k(  159) = (   0.0000000   0.4000000   0.4400000), wk =   0.0030720
        k(  160) = (   0.0000000   0.4000000   0.4800000), wk =   0.0030720
        k(  161) = (   0.0000000   0.4000000  -0.4800000), wk =   0.0030720
        k(  162) = (   0.0000000   0.4000000  -0.4400000), wk =   0.0030720
        k(  163) = (   0.0000000   0.4000000  -0.4000000), wk =   0.0015360
        k(  164) = (   0.0000000   0.4400000   0.4400000), wk =   0.0007680
        k(  165) = (   0.0000000   0.4400000   0.4800000), wk =   0.0030720
        k(  166) = (   0.0000000   0.4400000  -0.4800000), wk =   0.0030720
        k(  167) = (   0.0000000   0.4400000  -0.4400000), wk =   0.0015360
        k(  168) = (   0.0000000   0.4800000   0.4800000), wk =   0.0007680
        k(  169) = (   0.0000000   0.4800000  -0.4800000), wk =   0.0015360
        k(  170) = (   0.0400000   0.0800000   0.1200000), wk =   0.0030720
        k(  171) = (   0.0400000   0.0800000   0.1600000), wk =   0.0061440
        k(  172) = (   0.0400000   0.0800000   0.2000000), wk =   0.0061440
        k(  173) = (   0.0400000   0.0800000   0.2400000), wk =   0.0061440
        k(  174) = (   0.0400000   0.0800000   0.2800000), wk =   0.0061440
        k(  175) = (   0.0400000   0.0800000   0.3200000), wk =   0.0061440
        k(  176) = (   0.0400000   0.0800000   0.3600000), wk =   0.0061440
        k(  177) = (   0.0400000   0.0800000   0.4000000), wk =   0.0061440
        k(  178) = (   0.0400000   0.0800000   0.4400000), wk =   0.0061440
        k(  179) = (   0.0400000   0.0800000   0.4800000), wk =   0.0061440
        k(  180) = (   0.0400000   0.0800000  -0.4800000), wk =   0.0061440
        k(  181) = (   0.0400000   0.1200000   0.1600000), wk =   0.0030720
        k(  182) = (   0.0400000   0.1200000   0.2000000), wk =   0.0061440
        k(  183) = (   0.0400000   0.1200000   0.2400000), wk =   0.0061440
        k(  184) = (   0.0400000   0.1200000   0.2800000), wk =   0.0061440
        k(  185) = (   0.0400000   0.1200000   0.3200000), wk =   0.0061440
        k(  186) = (   0.0400000   0.1200000   0.3600000), wk =   0.0061440
        k(  187) = (   0.0400000   0.1200000   0.4000000), wk =   0.0061440
        k(  188) = (   0.0400000   0.1200000   0.4400000), wk =   0.0061440
        k(  189) = (   0.0400000   0.1200000   0.4800000), wk =   0.0061440
        k(  190) = (   0.0400000   0.1200000  -0.4800000), wk =   0.0061440
        k(  191) = (   0.0400000   0.1200000  -0.4400000), wk =   0.0061440
        k(  192) = (   0.0400000   0.1200000  -0.4000000), wk =   0.0061440
        k(  193) = (   0.0400000   0.1200000  -0.3600000), wk =   0.0061440
        k(  194) = (   0.0400000   0.1200000  -0.3200000), wk =   0.0061440
        k(  195) = (   0.0400000   0.1200000  -0.2800000), wk =   0.0061440
        k(  196) = (   0.0400000   0.1200000  -0.2400000), wk =   0.0061440
        k(  197) = (   0.0400000   0.1200000  -0.2000000), wk =   0.0061440
        k(  198) = (   0.0400000   0.1200000  -0.1600000), wk =   0.0061440
        k(  199) = (   0.0400000   0.1200000  -0.1200000), wk =   0.0061440
        k(  200) = (   0.0400000   0.1200000  -0.0800000), wk =   0.0030720
        k(  201) = (   0.0400000   0.1600000   0.2000000), wk =   0.0030720
        k(  202) = (   0.0400000   0.1600000   0.2400000), wk =   0.0061440
        k(  203) = (   0.0400000   0.1600000   0.2800000), wk =   0.0061440
        k(  204) = (   0.0400000   0.1600000   0.3200000), wk =   0.0061440
        k(  205) = (   0.0400000   0.1600000   0.3600000), wk =   0.0061440
        k(  206) = (   0.0400000   0.1600000   0.4000000), wk =   0.0061440
        k(  207) = (   0.0400000   0.1600000   0.4400000), wk =   0.0061440
        k(  208) = (   0.0400000   0.1600000   0.4800000), wk =   0.0061440
        k(  209) = (   0.0400000   0.1600000  -0.4800000), wk =   0.0061440
        k(  210) = (   0.0400000   0.1600000  -0.4400000), wk =   0.0061440
        k(  211) = (   0.0400000   0.1600000  -0.4000000), wk =   0.0061440
        k(  212) = (   0.0400000   0.1600000  -0.3600000), wk =   0.0061440
        k(  213) = (   0.0400000   0.1600000  -0.3200000), wk =   0.0061440
        k(  214) = (   0.0400000   0.1600000  -0.2800000), wk =   0.0061440
        k(  215) = (   0.0400000   0.1600000  -0.2400000), wk =   0.0061440
        k(  216) = (   0.0400000   0.1600000  -0.2000000), wk =   0.0061440
        k(  217) = (   0.0400000   0.1600000  -0.1600000), wk =   0.0061440
        k(  218) = (   0.0400000   0.1600000  -0.1200000), wk =   0.0030720
        k(  219) = (   0.0400000   0.2000000   0.2400000), wk =   0.0030720
        k(  220) = (   0.0400000   0.2000000   0.2800000), wk =   0.0061440
        k(  221) = (   0.0400000   0.2000000   0.3200000), wk =   0.0061440
        k(  222) = (   0.0400000   0.2000000   0.3600000), wk =   0.0061440
        k(  223) = (   0.0400000   0.2000000   0.4000000), wk =   0.0061440
        k(  224) = (   0.0400000   0.2000000   0.4400000), wk =   0.0061440
        k(  225) = (   0.0400000   0.2000000   0.4800000), wk =   0.0061440
        k(  226) = (   0.0400000   0.2000000  -0.4800000), wk =   0.0061440
        k(  227) = (   0.0400000   0.2000000  -0.4400000), wk =   0.0061440
        k(  228) = (   0.0400000   0.2000000  -0.4000000), wk =   0.0061440
        k(  229) = (   0.0400000   0.2000000  -0.3600000), wk =   0.0061440
        k(  230) = (   0.0400000   0.2000000  -0.3200000), wk =   0.0061440
        k(  231) = (   0.0400000   0.2000000  -0.2800000), wk =   0.0061440
        k(  232) = (   0.0400000   0.2000000  -0.2400000), wk =   0.0061440
        k(  233) = (   0.0400000   0.2000000  -0.2000000), wk =   0.0061440
        k(  234) = (   0.0400000   0.2000000  -0.1600000), wk =   0.0030720
        k(  235) = (   0.0400000   0.2400000   0.2800000), wk =   0.0030720
        k(  236) = (   0.0400000   0.2400000   0.3200000), wk =   0.0061440
        k(  237) = (   0.0400000   0.2400000   0.3600000), wk =   0.0061440
        k(  238) = (   0.0400000   0.2400000   0.4000000), wk =   0.0061440
        k(  239) = (   0.0400000   0.2400000   0.4400000), wk =   0.0061440
        k(  240) = (   0.0400000   0.2400000   0.4800000), wk =   0.0061440
        k(  241) = (   0.0400000   0.2400000  -0.4800000), wk =   0.0061440
        k(  242) = (   0.0400000   0.2400000  -0.4400000), wk =   0.0061440
        k(  243) = (   0.0400000   0.2400000  -0.4000000), wk =   0.0061440
        k(  244) = (   0.0400000   0.2400000  -0.3600000), wk =   0.0061440
        k(  245) = (   0.0400000   0.2400000  -0.3200000), wk =   0.0061440
        k(  246) = (   0.0400000   0.2400000  -0.2800000), wk =   0.0061440
        k(  247) = (   0.0400000   0.2400000  -0.2400000), wk =   0.0061440
        k(  248) = (   0.0400000   0.2400000  -0.2000000), wk =   0.0030720
        k(  249) = (   0.0400000   0.2800000   0.3200000), wk =   0.0030720
        k(  250) = (   0.0400000   0.2800000   0.3600000), wk =   0.0061440
        k(  251) = (   0.0400000   0.2800000   0.4000000), wk =   0.0061440
        k(  252) = (   0.0400000   0.2800000   0.4400000), wk =   0.0061440
        k(  253) = (   0.0400000   0.2800000   0.4800000), wk =   0.0061440
        k(  254) = (   0.0400000   0.2800000  -0.4800000), wk =   0.0061440
        k(  255) = (   0.0400000   0.2800000  -0.4400000), wk =   0.0061440
        k(  256) = (   0.0400000   0.2800000  -0.4000000), wk =   0.0061440
        k(  257) = (   0.0400000   0.2800000  -0.3600000), wk =   0.0061440
        k(  258) = (   0.0400000   0.2800000  -0.3200000), wk =   0.0061440
        k(  259) = (   0.0400000   0.2800000  -0.2800000), wk =   0.0061440
        k(  260) = (   0.0400000   0.2800000  -0.2400000), wk =   0.0030720
        k(  261) = (   0.0400000   0.3200000   0.3600000), wk =   0.0030720
        k(  262) = (   0.0400000   0.3200000   0.4000000), wk =   0.0061440
        k(  263) = (   0.0400000   0.3200000   0.4400000), wk =   0.0061440
        k(  264) = (   0.0400000   0.3200000   0.4800000), wk =   0.0061440
        k(  265) = (   0.0400000   0.3200000  -0.4800000), wk =   0.0061440
        k(  266) = (   0.0400000   0.3200000  -0.4400000), wk =   0.0061440
        k(  267) = (   0.0400000   0.3200000  -0.4000000), wk =   0.0061440
        k(  268) = (   0.0400000   0.3200000  -0.3600000), wk =   0.0061440
        k(  269) = (   0.0400000   0.3200000  -0.3200000), wk =   0.0061440
        k(  270) = (   0.0400000   0.3200000  -0.2800000), wk =   0.0030720
        k(  271) = (   0.0400000   0.3600000   0.4000000), wk =   0.0030720
        k(  272) = (   0.0400000   0.3600000   0.4400000), wk =   0.0061440
        k(  273) = (   0.0400000   0.3600000   0.4800000), wk =   0.0061440
        k(  274) = (   0.0400000   0.3600000  -0.4800000), wk =   0.0061440
        k(  275) = (   0.0400000   0.3600000  -0.4400000), wk =   0.0061440
        k(  276) = (   0.0400000   0.3600000  -0.4000000), wk =   0.0061440
        k(  277) = (   0.0400000   0.3600000  -0.3600000), wk =   0.0061440
        k(  278) = (   0.0400000   0.3600000  -0.3200000), wk =   0.0030720
        k(  279) = (   0.0400000   0.4000000   0.4400000), wk =   0.0030720
        k(  280) = (   0.0400000   0.4000000   0.4800000), wk =   0.0061440
        k(  281) = (   0.0400000   0.4000000  -0.4800000), wk =   0.0061440
        k(  282) = (   0.0400000   0.4000000  -0.4400000), wk =   0.0061440
        k(  283) = (   0.0400000   0.4000000  -0.4000000), wk =   0.0061440
        k(  284) = (   0.0400000   0.4000000  -0.3600000), wk =   0.0030720
        k(  285) = (   0.0400000   0.4400000   0.4800000), wk =   0.0030720
        k(  286) = (   0.0400000   0.4400000  -0.4800000), wk =   0.0061440
        k(  287) = (   0.0400000   0.4400000  -0.4400000), wk =   0.0061440
        k(  288) = (   0.0400000   0.4400000  -0.4000000), wk =   0.0030720
        k(  289) = (   0.0400000   0.4800000  -0.4800000), wk =   0.0030720
        k(  290) = (   0.0400000   0.4800000  -0.4400000), wk =   0.0030720
        k(  291) = (   0.0800000   0.1600000   0.2400000), wk =   0.0030720
        k(  292) = (   0.0800000   0.1600000   0.2800000), wk =   0.0061440
        k(  293) = (   0.0800000   0.1600000   0.3200000), wk =   0.0061440
        k(  294) = (   0.0800000   0.1600000   0.3600000), wk =   0.0061440
        k(  295) = (   0.0800000   0.1600000   0.4000000), wk =   0.0061440
        k(  296) = (   0.0800000   0.1600000   0.4400000), wk =   0.0061440
        k(  297) = (   0.0800000   0.1600000   0.4800000), wk =   0.0061440
        k(  298) = (   0.0800000   0.1600000  -0.4800000), wk =   0.0061440
        k(  299) = (   0.0800000   0.1600000  -0.4400000), wk =   0.0061440
        k(  300) = (   0.0800000   0.2000000   0.2800000), wk =   0.0030720
        k(  301) = (   0.0800000   0.2000000   0.3200000), wk =   0.0061440
        k(  302) = (   0.0800000   0.2000000   0.3600000), wk =   0.0061440
        k(  303) = (   0.0800000   0.2000000   0.4000000), wk =   0.0061440
        k(  304) = (   0.0800000   0.2000000   0.4400000), wk =   0.0061440
        k(  305) = (   0.0800000   0.2000000   0.4800000), wk =   0.0061440
        k(  306) = (   0.0800000   0.2000000  -0.4800000), wk =   0.0061440
        k(  307) = (   0.0800000   0.2000000  -0.4400000), wk =   0.0061440
        k(  308) = (   0.0800000   0.2000000  -0.4000000), wk =   0.0061440
        k(  309) = (   0.0800000   0.2000000  -0.3600000), wk =   0.0061440
        k(  310) = (   0.0800000   0.2000000  -0.3200000), wk =   0.0061440
        k(  311) = (   0.0800000   0.2000000  -0.2800000), wk =   0.0061440
        k(  312) = (   0.0800000   0.2000000  -0.2400000), wk =   0.0061440
        k(  313) = (   0.0800000   0.2000000  -0.2000000), wk =   0.0061440
        k(  314) = (   0.0800000   0.2000000  -0.1600000), wk =   0.0061440
        k(  315) = (   0.0800000   0.2000000  -0.1200000), wk =   0.0030720
        k(  316) = (   0.0800000   0.2400000   0.3200000), wk =   0.0030720
        k(  317) = (   0.0800000   0.2400000   0.3600000), wk =   0.0061440
        k(  318) = (   0.0800000   0.2400000   0.4000000), wk =   0.0061440
        k(  319) = (   0.0800000   0.2400000   0.4400000), wk =   0.0061440
        k(  320) = (   0.0800000   0.2400000   0.4800000), wk =   0.0061440
        k(  321) = (   0.0800000   0.2400000  -0.4800000), wk =   0.0061440
        k(  322) = (   0.0800000   0.2400000  -0.4400000), wk =   0.0061440
        k(  323) = (   0.0800000   0.2400000  -0.4000000), wk =   0.0061440
        k(  324) = (   0.0800000   0.2400000  -0.3600000), wk =   0.0061440
        k(  325) = (   0.0800000   0.2400000  -0.3200000), wk =   0.0061440
        k(  326) = (   0.0800000   0.2400000  -0.2800000), wk =   0.0061440
        k(  327) = (   0.0800000   0.2400000  -0.2400000), wk =   0.0061440
        k(  328) = (   0.0800000   0.2400000  -0.2000000), wk =   0.0061440
        k(  329) = (   0.0800000   0.2400000  -0.1600000), wk =   0.0030720
        k(  330) = (   0.0800000   0.2800000   0.3600000), wk =   0.0030720
        k(  331) = (   0.0800000   0.2800000   0.4000000), wk =   0.0061440
        k(  332) = (   0.0800000   0.2800000   0.4400000), wk =   0.0061440
        k(  333) = (   0.0800000   0.2800000   0.4800000), wk =   0.0061440
        k(  334) = (   0.0800000   0.2800000  -0.4800000), wk =   0.0061440
        k(  335) = (   0.0800000   0.2800000  -0.4400000), wk =   0.0061440
        k(  336) = (   0.0800000   0.2800000  -0.4000000), wk =   0.0061440
        k(  337) = (   0.0800000   0.2800000  -0.3600000), wk =   0.0061440
        k(  338) = (   0.0800000   0.2800000  -0.3200000), wk =   0.0061440
        k(  339) = (   0.0800000   0.2800000  -0.2800000), wk =   0.0061440
        k(  340) = (   0.0800000   0.2800000  -0.2400000), wk =   0.0061440
        k(  341) = (   0.0800000   0.2800000  -0.2000000), wk =   0.0030720
        k(  342) = (   0.0800000   0.3200000   0.4000000), wk =   0.0030720
        k(  343) = (   0.0800000   0.3200000   0.4400000), wk =   0.0061440
        k(  344) = (   0.0800000   0.3200000   0.4800000), wk =   0.0061440
        k(  345) = (   0.0800000   0.3200000  -0.4800000), wk =   0.0061440
        k(  346) = (   0.0800000   0.3200000  -0.4400000), wk =   0.0061440
        k(  347) = (   0.0800000   0.3200000  -0.4000000), wk =   0.0061440
        k(  348) = (   0.0800000   0.3200000  -0.3600000), wk =   0.0061440
        k(  349) = (   0.0800000   0.3200000  -0.3200000), wk =   0.0061440
        k(  350) = (   0.0800000   0.3200000  -0.2800000), wk =   0.0061440
        k(  351) = (   0.0800000   0.3200000  -0.2400000), wk =   0.0030720
        k(  352) = (   0.0800000   0.3600000   0.4400000), wk =   0.0030720
        k(  353) = (   0.0800000   0.3600000   0.4800000), wk =   0.0061440
        k(  354) = (   0.0800000   0.3600000  -0.4800000), wk =   0.0061440
        k(  355) = (   0.0800000   0.3600000  -0.4400000), wk =   0.0061440
        k(  356) = (   0.0800000   0.3600000  -0.4000000), wk =   0.0061440
        k(  357) = (   0.0800000   0.3600000  -0.3600000), wk =   0.0061440
        k(  358) = (   0.0800000   0.3600000  -0.3200000), wk =   0.0061440
        k(  359) = (   0.0800000   0.3600000  -0.2800000), wk =   0.0030720
        k(  360) = (   0.0800000   0.4000000   0.4800000), wk =   0.0030720
        k(  361) = (   0.0800000   0.4000000  -0.4800000), wk =   0.0061440
        k(  362) = (   0.0800000   0.4000000  -0.4400000), wk =   0.0061440
        k(  363) = (   0.0800000   0.4000000  -0.4000000), wk =   0.0061440
        k(  364) = (   0.0800000   0.4000000  -0.3600000), wk =   0.0061440
        k(  365) = (   0.0800000   0.4000000  -0.3200000), wk =   0.0030720
        k(  366) = (   0.0800000   0.4400000  -0.4800000), wk =   0.0030720
        k(  367) = (   0.0800000   0.4400000  -0.4400000), wk =   0.0061440
        k(  368) = (   0.0800000   0.4400000  -0.4000000), wk =   0.0061440
        k(  369) = (   0.0800000   0.4400000  -0.3600000), wk =   0.0030720
        k(  370) = (   0.0800000   0.4800000  -0.4400000), wk =   0.0030720
        k(  371) = (   0.0800000   0.4800000  -0.4000000), wk =   0.0030720
        k(  372) = (   0.1200000   0.2400000   0.3600000), wk =   0.0030720
        k(  373) = (   0.1200000   0.2400000   0.4000000), wk =   0.0061440
        k(  374) = (   0.1200000   0.2400000   0.4400000), wk =   0.0061440
        k(  375) = (   0.1200000   0.2400000   0.4800000), wk =   0.0061440
        k(  376) = (   0.1200000   0.2400000  -0.4800000), wk =   0.0061440
        k(  377) = (   0.1200000   0.2400000  -0.4400000), wk =   0.0061440
        k(  378) = (   0.1200000   0.2400000  -0.4000000), wk =   0.0061440
        k(  379) = (   0.1200000   0.2800000   0.4000000), wk =   0.0030720
        k(  380) = (   0.1200000   0.2800000   0.4400000), wk =   0.0061440
        k(  381) = (   0.1200000   0.2800000   0.4800000), wk =   0.0061440
        k(  382) = (   0.1200000   0.2800000  -0.4800000), wk =   0.0061440
        k(  383) = (   0.1200000   0.2800000  -0.4400000), wk =   0.0061440
        k(  384) = (   0.1200000   0.2800000  -0.4000000), wk =   0.0061440
        k(  385) = (   0.1200000   0.2800000  -0.3600000), wk =   0.0061440
        k(  386) = (   0.1200000   0.2800000  -0.3200000), wk =   0.0061440
        k(  387) = (   0.1200000   0.2800000  -0.2800000), wk =   0.0061440
        k(  388) = (   0.1200000   0.2800000  -0.2400000), wk =   0.0061440
        k(  389) = (   0.1200000   0.2800000  -0.2000000), wk =   0.0061440
        k(  390) = (   0.1200000   0.2800000  -0.1600000), wk =   0.0030720
        k(  391) = (   0.1200000   0.3200000   0.4400000), wk =   0.0030720
        k(  392) = (   0.1200000   0.3200000   0.4800000), wk =   0.0061440
        k(  393) = (   0.1200000   0.3200000  -0.4800000), wk =   0.0061440
        k(  394) = (   0.1200000   0.3200000  -0.4400000), wk =   0.0061440
        k(  395) = (   0.1200000   0.3200000  -0.4000000), wk =   0.0061440
        k(  396) = (   0.1200000   0.3200000  -0.3600000), wk =   0.0061440
        k(  397) = (   0.1200000   0.3200000  -0.3200000), wk =   0.0061440
        k(  398) = (   0.1200000   0.3200000  -0.2800000), wk =   0.0061440
        k(  399) = (   0.1200000   0.3200000  -0.2400000), wk =   0.0061440
        k(  400) = (   0.1200000   0.3200000  -0.2000000), wk =   0.0030720
        k(  401) = (   0.1200000   0.3600000   0.4800000), wk =   0.0030720
        k(  402) = (   0.1200000   0.3600000  -0.4800000), wk =   0.0061440
        k(  403) = (   0.1200000   0.3600000  -0.4400000), wk =   0.0061440
        k(  404) = (   0.1200000   0.3600000  -0.4000000), wk =   0.0061440
        k(  405) = (   0.1200000   0.3600000  -0.3600000), wk =   0.0061440
        k(  406) = (   0.1200000   0.3600000  -0.3200000), wk =   0.0061440
        k(  407) = (   0.1200000   0.3600000  -0.2800000), wk =   0.0061440
        k(  408) = (   0.1200000   0.3600000  -0.2400000), wk =   0.0030720
        k(  409) = (   0.1200000   0.4000000  -0.4800000), wk =   0.0030720
        k(  410) = (   0.1200000   0.4000000  -0.4400000), wk =   0.0061440
        k(  411) = (   0.1200000   0.4000000  -0.4000000), wk =   0.0061440
        k(  412) = (   0.1200000   0.4000000  -0.3600000), wk =   0.0061440
        k(  413) = (   0.1200000   0.4000000  -0.3200000), wk =   0.0061440
        k(  414) = (   0.1200000   0.4000000  -0.2800000), wk =   0.0030720
        k(  415) = (   0.1200000   0.4400000  -0.4400000), wk =   0.0030720
        k(  416) = (   0.1200000   0.4400000  -0.4000000), wk =   0.0061440
        k(  417) = (   0.1200000   0.4400000  -0.3600000), wk =   0.0061440
        k(  418) = (   0.1200000   0.4400000  -0.3200000), wk =   0.0030720
[...]

     occupation numbers 
     1.0000   1.0000   1.0000   1.0000   0.0000   0.0000   0.0000   0.0000
     0.0000   0.0000   0.0000   0.0000   0.0000   0.0000   0.0000   0.0000

          k = 0.6800-0.1200 0.9200 (   256 PWs)   bands (ev):

    -2.2090  -0.6274   2.3011   3.1298   8.4188   9.6470  12.3206  14.4736
    15.3700  17.7801  18.6361  20.8289  21.6395  21.9711  23.6976  24.5414

     occupation numbers 
     1.0000   1.0000   1.0000   1.0000   0.0000   0.0000   0.0000   0.0000
     0.0000   0.0000   0.0000   0.0000   0.0000   0.0000   0.0000   0.0000

          k = 0.6400-0.0800 0.8800 (   258 PWs)   bands (ev):

    -1.9943  -0.8360   2.0656   3.1812   8.5238  10.3674  12.1730  13.6091
    15.3313  17.2464  19.1305  20.9705  21.7705  22.7596  23.8116  24.5365

     occupation numbers 
     1.0000   1.0000   1.0000   1.0000   0.0000   0.0000   0.0000   0.0000
     0.0000   0.0000   0.0000   0.0000   0.0000   0.0000   0.0000   0.0000

          k = 0.6000-0.0400 0.8400 (   260 PWs)   bands (ev):

    -1.9920  -0.8283   1.9058   3.2862   8.6591  11.0937  12.0814  12.7985
    15.1894  16.5895  19.7855  21.0878  21.7502  22.8846  23.7269  24.8732

     occupation numbers 
     1.0000   1.0000   1.0000   1.0000   0.0000   0.0000   0.0000   0.0000
     0.0000   0.0000   0.0000   0.0000   0.0000   0.0000   0.0000   0.0000

          k = 0.5600 0.0000 0.8000 (   259 PWs)   bands (ev):

    -2.1983  -0.6242   1.8516   3.4372   8.8320  11.4314  12.1608  12.3368
    14.8545  16.0950  20.2884  21.2051  21.2836  22.7261  23.9208  24.7394

     occupation numbers 
     1.0000   1.0000   1.0000   1.0000   0.0000   0.0000   0.0000   0.0000
     0.0000   0.0000   0.0000   0.0000   0.0000   0.0000   0.0000   0.0000

          k = 0.7600-0.1200 1.0000 (   253 PWs)   bands (ev):

    -2.2962  -0.5784   2.7691   3.0333   8.0759   8.4046  13.3332  15.4280
    15.9351  17.8047  18.7420  20.3363  20.7777  22.3430  22.9001  23.9953

     occupation numbers 
     1.0000   1.0000   1.0000   1.0000   0.0000   0.0000   0.0000   0.0000
     0.0000   0.0000   0.0000   0.0000   0.0000   0.0000   0.0000   0.0000

          k = 0.7200-0.0800 0.9600 (   254 PWs)   bands (ev):

    -1.9867  -0.8713   2.5143   2.9641   8.2663   8.8771  13.1603  14.6104
    16.1069  17.7009  18.8037  20.2612  21.6931  22.5644  23.1703  24.3467

     occupation numbers 
     1.0000   1.0000   1.0000   1.0000   0.0000   0.0000   0.0000   0.0000
     0.0000   0.0000   0.0000   0.0000   0.0000   0.0000   0.0000   0.0000

          k = 0.6800-0.0400 0.9200 (   261 PWs)   bands (ev):

    -1.7435  -1.0941   2.2263   3.0164   8.3642   9.5673  12.9858  13.7290
    16.1111  17.2219  19.2126  20.4143  22.2588  22.8966  23.4336  23.9432

     occupation numbers 
     1.0000   1.0000   1.0000   1.0000   0.0000   0.0000   0.0000   0.0000
     0.0000   0.0000   0.0000   0.0000   0.0000   0.0000   0.0000   0.0000

          k = 0.6400 0.0000 0.8800 (   262 PWs)   bands (ev):

    -1.7625  -1.0525   2.0087   3.1282   8.4924  10.3334  12.7361  12.9946
    15.8148  16.7793  19.6207  20.7836  22.1298  23.0490  23.5205  24.0545

     occupation numbers 
     1.0000   1.0000   1.0000   1.0000   0.0000   0.0000   0.0000   0.0000
     0.0000   0.0000   0.0000   0.0000   0.0000   0.0000   0.0000   0.0000

          k = 0.7600-0.0400 1.0000 (   257 PWs)   bands (ev):

    -1.7444  -1.1653   2.7826   2.8699   8.1136   8.2218  14.0337  14.7638
    16.6653  17.4527  19.0336  19.7258  21.5839  22.3151  23.3781  24.3686

     occupation numbers 
     1.0000   1.0000   1.0000   1.0000   0.0000   0.0000   0.0000   0.0000
     0.0000   0.0000   0.0000   0.0000   0.0000   0.0000   0.0000   0.0000

          k = 0.7200 0.0000 0.9600 (   260 PWs)   bands (ev):

    -1.5197  -1.3535   2.4956   2.8981   8.2462   8.8239  13.8168  13.9168
    16.7460  17.1593  19.2716  19.7653  22.3185  22.6400  23.5396  23.7538

     occupation numbers 
     1.0000   1.0000   1.0000   1.0000   0.0000   0.0000   0.0000   0.0000
     0.0000   0.0000   0.0000   0.0000   0.0000   0.0000   0.0000   0.0000

          k =-0.3200 0.6400 0.0000 (   260 PWs)   bands (ev):

    -3.5999   0.8664   2.7479   4.0945   9.0765  10.0370  10.5860  13.2147
    15.2442  16.6979  19.0462  19.4532  20.1586  21.6613  22.7645  24.5575

     occupation numbers 
     1.0000   1.0000   1.0000   1.0000   0.0000   0.0000   0.0000   0.0000
     0.0000   0.0000   0.0000   0.0000   0.0000   0.0000   0.0000   0.0000

          k = 0.6400-0.3200 0.9600 (   258 PWs)   bands (ev):

    -3.2919   0.4701   2.5200   3.9058   9.3279  10.1695  10.5574  13.5023
    15.5882  15.8866  19.4392  20.0188  20.6077  21.2467  23.3954  24.4933

     occupation numbers 
     1.0000   1.0000   1.0000   1.0000   0.0000   0.0000   0.0000   0.0000
     0.0000   0.0000   0.0000   0.0000   0.0000   0.0000   0.0000   0.0000

          k = 0.6000-0.2800 0.9200 (   258 PWs)   bands (ev):

    -2.9795   0.0656   2.3747   3.7459   9.4473  10.0936  10.9907  13.6407
    15.0103  16.1281  19.2687  20.3645  21.0992  21.5140  23.7747  24.8117

     occupation numbers 
     1.0000   1.0000   1.0000   1.0000   0.0000   0.0000   0.0000   0.0000
     0.0000   0.0000   0.0000   0.0000   0.0000   0.0000   0.0000   0.0000

          k = 0.5600-0.2400 0.8800 (   256 PWs)   bands (ev):

    -2.6937  -0.2916   2.2917   3.6302   9.5231   9.9540  11.6518  13.6931
    14.1366  16.7816  18.9669  19.9068  21.8869  22.4289  23.8069  24.8400

     occupation numbers 
     1.0000   1.0000   1.0000   1.0000   0.0000   0.0000   0.0000   0.0000
     0.0000   0.0000   0.0000   0.0000   0.0000   0.0000   0.0000   0.0000

          k = 0.5200-0.2000 0.8400 (   255 PWs)   bands (ev):

    -2.5054  -0.5184   2.2551   3.5695   9.5847   9.8481  12.3803  13.3078
    13.7124  17.4075  18.5026  19.6508  22.6227  23.2752  23.5117  24.5511

     occupation numbers 
     1.0000   1.0000   1.0000   1.0000   0.0000   0.0000   0.0000   0.0000
     0.0000   0.0000   0.0000   0.0000   0.0000   0.0000   0.0000   0.0000

          k = 0.6800-0.2800 1.0000 (   257 PWs)   bands (ev):

    -3.1667   0.3898   2.5862   3.6189   8.9469   9.6651  11.0996  14.0709
    16.0159  16.1099  19.9169  19.9280  20.5128  21.0226  23.1495  24.2604

     occupation numbers 
     1.0000   1.0000   1.0000   1.0000   0.0000   0.0000   0.0000   0.0000
     0.0000   0.0000   0.0000   0.0000   0.0000   0.0000   0.0000   0.0000

          k = 0.6400-0.2400 0.9600 (   254 PWs)   bands (ev):

    -2.8516   0.0359   2.3817   3.4417   9.1936  10.0052  10.9445  14.3708
    15.1176  16.4965  19.7251  20.4249  21.0524  21.2447  23.2475  24.7559

     occupation numbers 
     1.0000   1.0000   1.0000   1.0000   0.0000   0.0000   0.0000   0.0000
     0.0000   0.0000   0.0000   0.0000   0.0000   0.0000   0.0000   0.0000

          k = 0.6000-0.2000 0.9200 (   256 PWs)   bands (ev):

    -2.5526  -0.3037   2.2301   3.3203   9.3046  10.4216  10.9693  14.2163
    14.5026  17.0648  19.1645  20.3751  21.7148  22.0675  23.4384  25.2437

     occupation numbers 
     1.0000   1.0000   1.0000   1.0000   0.0000   0.0000   0.0000   0.0000
     0.0000   0.0000   0.0000   0.0000   0.0000   0.0000   0.0000   0.0000

          k = 0.5600-0.1600 0.8800 (   260 PWs)   bands (ev):

    -2.3216  -0.5649   2.1250   3.2672   9.3991  10.4374  11.5219  13.3471
    14.5402  17.6223  18.5889  20.3017  22.1867  22.9434  23.7554  24.9627

     occupation numbers 
     1.0000   1.0000   1.0000   1.0000   0.0000   0.0000   0.0000   0.0000
     0.0000   0.0000   0.0000   0.0000   0.0000   0.0000   0.0000   0.0000

          k = 0.5200-0.1200 0.8400 (   259 PWs)   bands (ev):

    -2.2582  -0.6298   2.0660   3.2850   9.5170  10.3338  12.1619  12.6482
    14.5280  17.4319  18.7756  20.2890  22.3324  23.4035  23.8680  24.4356

     occupation numbers 
     1.0000   1.0000   1.0000   1.0000   0.0000   0.0000   0.0000   0.0000
     0.0000   0.0000   0.0000   0.0000   0.0000   0.0000   0.0000   0.0000

          k = 0.4800-0.0800 0.8000 (   258 PWs)   bands (ev):

    -2.4054  -0.4641   2.0600   3.3686   9.6597  10.2278  11.6722  13.2093
    14.4690  16.7819  19.4281  20.3475  21.9848  22.9351  23.4024  24.9155

     occupation numbers 
     1.0000   1.0000   1.0000   1.0000   0.0000   0.0000   0.0000   0.0000
     0.0000   0.0000   0.0000   0.0000   0.0000   0.0000   0.0000   0.0000

          k = 0.4400-0.0400 0.7600 (   256 PWs)   bands (ev):

    -2.6759  -0.1667   2.1213   3.5085   9.8233  10.0943  11.0307  14.0666
    14.3401  16.1811  19.9750  20.4975  21.2374  22.1801  23.2047  25.3150

     occupation numbers 
     1.0000   1.0000   1.0000   1.0000   0.0000   0.0000   0.0000   0.0000
     0.0000   0.0000   0.0000   0.0000   0.0000   0.0000   0.0000   0.0000

          k = 0.4000 0.0000 0.7200 (   258 PWs)   bands (ev):

    -2.9858   0.1616   2.2695   3.6921   9.7922  10.0084  10.6370  13.9977
    14.9962  15.7697  20.0650  20.5869  20.6343  21.4229  23.2777  24.8467

     occupation numbers 
     1.0000   1.0000   1.0000   1.0000   0.0000   0.0000   0.0000   0.0000
     0.0000   0.0000   0.0000   0.0000   0.0000   0.0000   0.0000   0.0000

          k = 0.6800-0.2000 1.0000 (   253 PWs)   bands (ev):

    -2.6939  -0.1040   2.4904   3.2116   8.8665   9.3634  11.6769  14.9140
    15.2735  16.9570  19.5677  20.7244  20.7706  21.3762  23.1030  24.4490

     occupation numbers 
     1.0000   1.0000   1.0000   1.0000   0.0000   0.0000   0.0000   0.0000
     0.0000   0.0000   0.0000   0.0000   0.0000   0.0000   0.0000   0.0000

          k = 0.6400-0.1600 0.9600 (   254 PWs)   bands (ev):

    -2.3846  -0.4164   2.3069   3.0591   9.0943   9.8097  11.5067  14.3247
    15.2441  17.3348  19.1563  20.7627  21.3339  22.0963  23.2575  24.8759

     occupation numbers 
     1.0000   1.0000   1.0000   1.0000   0.0000   0.0000   0.0000   0.0000
     0.0000   0.0000   0.0000   0.0000   0.0000   0.0000   0.0000   0.0000

          k = 0.6000-0.1200 0.9200 (   260 PWs)   bands (ev):

    -2.1195  -0.6879   2.1394   3.0034   9.2032  10.4447  11.3847  13.4348
    15.3514  17.7074  18.7086  20.8242  21.6168  22.9466  23.6509  24.7904

     occupation numbers 
     1.0000   1.0000   1.0000   1.0000   0.0000   0.0000   0.0000   0.0000
     0.0000   0.0000   0.0000   0.0000   0.0000   0.0000   0.0000   0.0000

          k = 0.5600-0.0800 0.8800 (   259 PWs)   bands (ev):

    -1.9978  -0.8024   2.0123   3.0365   9.3230  10.8914  11.5488  12.6081
    15.3382  17.4173  18.9823  20.8680  21.7309  23.4378  23.9299  24.7071

     occupation numbers 
     1.0000   1.0000   1.0000   1.0000   0.0000   0.0000   0.0000   0.0000
     0.0000   0.0000   0.0000   0.0000   0.0000   0.0000   0.0000   0.0000

          k = 0.5200-0.0400 0.8400 (   261 PWs)   bands (ev):

    -2.1154  -0.6841   1.9514   3.1399   9.4707  10.8659  11.7209  12.3701
    15.2038  16.8316  19.5895  20.9126  21.5645  22.9482  24.0566  25.0389

     occupation numbers 
     1.0000   1.0000   1.0000   1.0000   0.0000   0.0000   0.0000   0.0000
     0.0000   0.0000   0.0000   0.0000   0.0000   0.0000   0.0000   0.0000

          k = 0.4800 0.0000 0.8000 (   258 PWs)   bands (ev):

    -2.3751  -0.4324   1.9817   3.3020   9.6491  10.6117  11.2169  13.1767
    14.8777  16.3877  20.0740  20.9778  21.0324  22.8655  23.2075  25.4561

     occupation numbers 
     1.0000   1.0000   1.0000   1.0000   0.0000   0.0000   0.0000   0.0000
     0.0000   0.0000   0.0000   0.0000   0.0000   0.0000   0.0000   0.0000

          k = 0.6800-0.1200 1.0000 (   253 PWs)   bands (ev):

    -2.1942  -0.6181   2.4665   2.8905   8.8386   9.1298  12.3067  14.4591
    15.8120  17.6283  18.9477  20.4342  21.6387  22.2402  23.3476  24.3667

     occupation numbers 
     1.0000   1.0000   1.0000   1.0000   0.0000   0.0000   0.0000   0.0000
     0.0000   0.0000   0.0000   0.0000   0.0000   0.0000   0.0000   0.0000

          k = 0.6400-0.0800 0.9600 (   258 PWs)   bands (ev):

    -1.9039  -0.8916   2.2916   2.7902   9.0376   9.6813  12.1320  13.5530
    16.0936  17.6529  18.8790  20.3528  22.0657  22.9923  23.5523  24.6513

     occupation numbers 
     1.0000   1.0000   1.0000   1.0000   0.0000   0.0000   0.0000   0.0000
     0.0000   0.0000   0.0000   0.0000   0.0000   0.0000   0.0000   0.0000

          k = 0.6000-0.0400 0.9200 (   259 PWs)   bands (ev):

    -1.7391  -1.0358   2.0982   2.8334   9.1547  10.4027  11.9928  12.6968
    16.1042  17.3484  19.1356  20.4749  22.1438  23.3782  23.8694  24.5747

     occupation numbers 
     1.0000   1.0000   1.0000   1.0000   0.0000   0.0000   0.0000   0.0000
     0.0000   0.0000   0.0000   0.0000   0.0000   0.0000   0.0000   0.0000

          k = 0.5600 0.0000 0.8800 (   260 PWs)   bands (ev):

    -1.8525  -0.9182   1.9707   2.9580   9.2951  11.0524  11.9266  11.9797
    15.8015  16.9976  19.4782  20.7604  21.8777  22.9797  24.4318  24.8215

     occupation numbers 
     1.0000   1.0000   1.0000   1.0000   0.0000   0.0000   0.0000   0.0000
     0.0000   0.0000   0.0000   0.0000   0.0000   0.0000   0.0000   0.0000

          k = 0.6800-0.0400 1.0000 (   258 PWs)   bands (ev):

    -1.6773  -1.1497   2.5200   2.6597   8.8690   8.9649  12.9796  13.6998
    16.6577  17.4283  19.1140  19.7977  22.4911  23.1977  23.2171  24.2004

     occupation numbers 
     1.0000   1.0000   1.0000   1.0000   0.0000   0.0000   0.0000   0.0000
     0.0000   0.0000   0.0000   0.0000   0.0000   0.0000   0.0000   0.0000

          k = 0.6400 0.0000 0.9600 (   260 PWs)   bands (ev):

    -1.5134  -1.2797   2.3007   2.6841   9.0162   9.6365  12.7757  12.8606
    16.7153  17.2318  19.2628  19.8592  22.7335  23.2363  23.8797  23.9486

     occupation numbers 
     1.0000   1.0000   1.0000   1.0000   0.0000   0.0000   0.0000   0.0000
     0.0000   0.0000   0.0000   0.0000   0.0000   0.0000   0.0000   0.0000

          k = 0.6000-0.2000 1.0000 (   256 PWs)   bands (ev):

    -2.5448  -0.2532   2.2012   3.2201   9.7143  10.0645  10.8208  14.1905
    14.9047  16.6818  19.8238  20.8458  20.8961  22.1948  22.9908  25.2062

     occupation numbers 
     1.0000   1.0000   1.0000   1.0000   0.0000   0.0000   0.0000   0.0000
     0.0000   0.0000   0.0000   0.0000   0.0000   0.0000   0.0000   0.0000

          k = 0.5600-0.1600 0.9600 (   260 PWs)   bands (ev):

    -2.2508  -0.5454   2.0912   3.0567   9.9141  10.3023  10.9545  13.2918
    15.2209  17.0870  19.3761  20.8144  21.4020  22.9897  23.2080  25.2239

     occupation numbers 
     1.0000   1.0000   1.0000   1.0000   0.0000   0.0000   0.0000   0.0000
     0.0000   0.0000   0.0000   0.0000   0.0000   0.0000   0.0000   0.0000

          k = 0.5200-0.1200 0.9200 (   258 PWs)   bands (ev):

    -2.0433  -0.7476   2.0415   2.9701   9.9625  10.3392  11.5372  12.4676
    15.3463  17.5818  18.8343  20.8109  21.6800  23.5082  23.9091  24.7789

     occupation numbers 
     1.0000   1.0000   1.0000   1.0000   0.0000   0.0000   0.0000   0.0000
     0.0000   0.0000   0.0000   0.0000   0.0000   0.0000   0.0000   0.0000

          k = 0.6000-0.1200 1.0000 (   258 PWs)   bands (ev):

    -2.0807  -0.6928   2.2150   2.8233   9.6834   9.9140  11.3412  13.4053
    15.8000  17.4316  19.1429  20.5426  21.6912  23.0957  23.2164  24.9004

     occupation numbers 
     1.0000   1.0000   1.0000   1.0000   0.0000   0.0000   0.0000   0.0000
     0.0000   0.0000   0.0000   0.0000   0.0000   0.0000   0.0000   0.0000

          k = 0.5600-0.0800 0.9600 (   258 PWs)   bands (ev):

    -1.8249  -0.9257   2.1392   2.7022   9.8727  10.4572  11.2578  12.5401
    16.0953  17.5778  18.9663  20.4323  21.9835  23.4195  23.9942  24.6363

     occupation numbers 
     1.0000   1.0000   1.0000   1.0000   0.0000   0.0000   0.0000   0.0000
     0.0000   0.0000   0.0000   0.0000   0.0000   0.0000   0.0000   0.0000

          k = 0.5200-0.0400 0.9200 (   258 PWs)   bands (ev):

    -1.7675  -0.9747   2.0705   2.7190   9.9847  10.7611  11.4662  11.8643
    16.0994  17.4736  19.0549  20.4771  22.0073  23.3364  24.4176  24.8967

     occupation numbers 
     1.0000   1.0000   1.0000   1.0000   0.0000   0.0000   0.0000   0.0000
     0.0000   0.0000   0.0000   0.0000   0.0000   0.0000   0.0000   0.0000

          k = 0.4800 0.0000 0.8800 (   259 PWs)   bands (ev):

    -1.9642  -0.7928   2.0432   2.8481  10.1033  10.5627  11.1004  12.4213
    15.7997  17.2197  19.3212  20.6638  21.7184  23.0571  24.1207  24.9198

     occupation numbers 
     1.0000   1.0000   1.0000   1.0000   0.0000   0.0000   0.0000   0.0000
     0.0000   0.0000   0.0000   0.0000   0.0000   0.0000   0.0000   0.0000

          k = 0.6000-0.0400 1.0000 (   256 PWs)   bands (ev):

    -1.6097  -1.1442   2.3195   2.5209   9.7077   9.7865  11.9709  12.6660
    16.6688  17.4007  19.1866  19.8704  22.5618  23.3074  24.0081  24.6862

     occupation numbers 
     1.0000   1.0000   1.0000   1.0000   0.0000   0.0000   0.0000   0.0000
     0.0000   0.0000   0.0000   0.0000   0.0000   0.0000   0.0000   0.0000

          k = 0.5600-0.0000 0.9600 (   260 PWs)   bands (ev):

    -1.5236  -1.2134   2.2003   2.5347   9.8533  10.4634  11.8273  11.8635
    16.6947  17.2999  19.2569  19.9132  22.5893  23.1537  24.5966  24.8373

     occupation numbers 
     1.0000   1.0000   1.0000   1.0000   0.0000   0.0000   0.0000   0.0000
     0.0000   0.0000   0.0000   0.0000   0.0000   0.0000   0.0000   0.0000

          k = 0.5200-0.0400 1.0000 (   261 PWs)   bands (ev):

    -1.5600  -1.1668   2.2069   2.4766  10.4370  10.5315  11.2385  11.7420
    16.6787  17.3556  19.2336  19.9114  22.5077  23.1726  24.6439  24.9570

     occupation numbers 
     1.0000   1.0000   1.0000   1.0000   0.0000   0.0000   0.0000   0.0000
     0.0000   0.0000   0.0000   0.0000   0.0000   0.0000   0.0000   0.0000

     highest occupied, lowest unoccupied level (ev):     6.3137    6.8286

     Writing output data file Si_nscf_yambo_kx25.save

     init_run     :      0.05s CPU      0.06s WALL (       1 calls)
     electrons    :    104.94s CPU    106.04s WALL (       1 calls)

     Called by init_run:
     wfcinit      :      0.00s CPU      0.00s WALL (       1 calls)
     potinit      :      0.00s CPU      0.00s WALL (       1 calls)

     Called by electrons:
     c_bands      :    104.91s CPU    106.02s WALL (       1 calls)
     v_of_rho     :      0.00s CPU      0.00s WALL (       1 calls)
     v_h          :      0.00s CPU      0.00s WALL (       1 calls)
     v_xc         :      0.00s CPU      0.00s WALL (       1 calls)

     Called by c_bands:
     init_us_2    :      0.03s CPU      0.04s WALL (     455 calls)
     cegterg      :    100.63s CPU    101.07s WALL (     931 calls)

     Called by sum_band:

     Called by *egterg:
     h_psi        :     68.63s CPU     69.01s WALL (   15806 calls)
     g_psi        :      0.47s CPU      0.47s WALL (   14420 calls)
     cdiaghg      :     19.79s CPU     19.90s WALL (   14875 calls)
     cegterg:over :      7.73s CPU      7.75s WALL (   14420 calls)
     cegterg:upda :      4.09s CPU      4.07s WALL (   14420 calls)
     cegterg:last :      3.00s CPU      2.97s WALL (    2750 calls)

     Called by h_psi:
     h_psi:vloc   :     66.84s CPU     67.22s WALL (   15806 calls)
     h_psi:vnl    :      1.69s CPU      1.68s WALL (   15806 calls)
     add_vuspsi   :      0.76s CPU      0.77s WALL (   15806 calls)

     General routines
     calbec       :      0.88s CPU      0.87s WALL (   15806 calls)
     fft          :      0.00s CPU      0.00s WALL (       3 calls)
     fftw         :     64.11s CPU     64.49s WALL (  272120 calls)
     davcio       :      0.01s CPU      0.07s WALL (     910 calls)

     Parallel routines
     fft_scatter  :      1.63s CPU      1.64s WALL (  272123 calls)

     PWSCF        :  1m46.85s CPU     1m48.12s WALL


   This run was terminated on:  21: 4:18  28Oct2016            

=------------------------------------------------------------------------------=
   JOB DONE.
=------------------------------------------------------------------------------=
