
     Program PWSCF v.5.1 (svn rev. 11219) starts on 28Oct2016 at 21: 2:13 

     This program is part of the open-source Quantum ESPRESSO suite
     for quantum simulation of materials; please cite
         "P. Giannozzi et al., J. Phys.:Condens. Matter 21 395502 (2009);
          URL http://www.quantum-espresso.org", 
     in publications or presentations arising from this work. More details at
     http://www.quantum-espresso.org/quote

     Parallel version (MPI), running on     1 processors
     Waiting for input...
     Reading input from standard input

     Current dimensions of program PWSCF are:
     Max number of different atomic species (ntypx) = 10
     Max number of k-points (npk) =  40000
     Max angular momentum in pseudopotentials (lmaxx) =  3

     Atomic positions and unit cell read from directory:
     ./Si_nscf_yambo_kx8.save/


     Subspace diagonalization in iterative solution of the eigenvalue problem:
     a serial algorithm will be used


     G-vector sticks info
     --------------------
     sticks:   dense  smooth     PW     G-vecs:    dense   smooth      PW
     Sum         211     211     85                 2085     2085     459



     bravais-lattice index     =            2
     lattice parameter (alat)  =      10.1830  a.u.
     unit-cell volume          =     263.9777 (a.u.)^3
     number of atoms/cell      =            2
     number of atomic types    =            1
     number of electrons       =         8.00
     number of Kohn-Sham states=           16
     kinetic-energy cutoff     =      15.0000  Ry
     charge density cutoff     =      60.0000  Ry
     Exchange-correlation      =  SLA  PZ   NOGX NOGC ( 1  1  0  0 0 0)

     celldm(1)=  10.183000  celldm(2)=   0.000000  celldm(3)=   0.000000
     celldm(4)=   0.000000  celldm(5)=   0.000000  celldm(6)=   0.000000

     crystal axes: (cart. coord. in units of alat)
               a(1) = (  -0.500000   0.000000   0.500000 )  
               a(2) = (   0.000000   0.500000   0.500000 )  
               a(3) = (  -0.500000   0.500000   0.000000 )  

     reciprocal axes: (cart. coord. in units 2 pi/alat)
               b(1) = ( -1.000000 -1.000000  1.000000 )  
               b(2) = (  1.000000  1.000000  1.000000 )  
               b(3) = ( -1.000000  1.000000 -1.000000 )  


     PseudoPot. # 1 for Si read from file:
     ./Si.vbc.UPF
     MD5 check sum: 7974b67c806a44bbea7c2da40a3c413a
     Pseudo is Norm-conserving, Zval =  4.0
     Generated by new atomic code, or converted to UPF format
     Using radial grid of  431 points,  2 beta functions with: 
                l(1) =   0
                l(2) =   1

     atomic species   valence    mass     pseudopotential
        Si             4.00    28.08600     Si( 1.00)

     24 Sym. Ops. (no inversion) found


                                    s                        frac. trans.

      isym =  1     identity                                     

 cryst.   s( 1) = (     1          0          0      )
                  (     0          1          0      )
                  (     0          0          1      )

 cart.    s( 1) = (  1.0000000  0.0000000  0.0000000 )
                  (  0.0000000  1.0000000  0.0000000 )
                  (  0.0000000  0.0000000  1.0000000 )


      isym =  2     180 deg rotation - cart. axis [0,0,1]        

 cryst.   s( 2) = (     0          1         -1      )
                  (     1          0         -1      )
                  (     0          0         -1      )

 cart.    s( 2) = ( -1.0000000  0.0000000  0.0000000 )
                  (  0.0000000 -1.0000000  0.0000000 )
                  (  0.0000000  0.0000000  1.0000000 )


      isym =  3     180 deg rotation - cart. axis [0,1,0]        

 cryst.   s( 3) = (    -1          0          0      )
                  (    -1          0          1      )
                  (    -1          1          0      )

 cart.    s( 3) = ( -1.0000000  0.0000000  0.0000000 )
                  (  0.0000000  1.0000000  0.0000000 )
                  (  0.0000000  0.0000000 -1.0000000 )


      isym =  4     180 deg rotation - cart. axis [1,0,0]        

 cryst.   s( 4) = (     0         -1          1      )
                  (     0         -1          0      )
                  (     1         -1          0      )

 cart.    s( 4) = (  1.0000000  0.0000000  0.0000000 )
                  (  0.0000000 -1.0000000  0.0000000 )
                  (  0.0000000  0.0000000 -1.0000000 )


      isym =  5     120 deg rotation - cart. axis [-1,-1,-1]     

 cryst.   s( 5) = (    -1          0          1      )
                  (    -1          1          0      )
                  (    -1          0          0      )

 cart.    s( 5) = (  0.0000000  1.0000000  0.0000000 )
                  (  0.0000000  0.0000000  1.0000000 )
                  (  1.0000000  0.0000000  0.0000000 )


      isym =  6     120 deg rotation - cart. axis [-1,1,1]       

 cryst.   s( 6) = (     0          1          0      )
                  (     0          0          1      )
                  (     1          0          0      )

 cart.    s( 6) = (  0.0000000 -1.0000000  0.0000000 )
                  (  0.0000000  0.0000000  1.0000000 )
                  ( -1.0000000  0.0000000  0.0000000 )


      isym =  7     120 deg rotation - cart. axis [1,1,-1]       

 cryst.   s( 7) = (     1          0         -1      )
                  (     0          0         -1      )
                  (     0          1         -1      )

 cart.    s( 7) = (  0.0000000  1.0000000  0.0000000 )
                  (  0.0000000  0.0000000 -1.0000000 )
                  ( -1.0000000  0.0000000  0.0000000 )


      isym =  8     120 deg rotation - cart. axis [1,-1,1]       

 cryst.   s( 8) = (     0         -1          0      )
                  (     1         -1          0      )
                  (     0         -1          1      )

 cart.    s( 8) = (  0.0000000 -1.0000000  0.0000000 )
                  (  0.0000000  0.0000000 -1.0000000 )
                  (  1.0000000  0.0000000  0.0000000 )


      isym =  9     120 deg rotation - cart. axis [1,1,1]        

 cryst.   s( 9) = (     0          0         -1      )
                  (     0          1         -1      )
                  (     1          0         -1      )

 cart.    s( 9) = (  0.0000000  0.0000000  1.0000000 )
                  (  1.0000000  0.0000000  0.0000000 )
                  (  0.0000000  1.0000000  0.0000000 )


      isym = 10     120 deg rotation - cart. axis [-1,1,-1]      

 cryst.   s(10) = (    -1          1          0      )
                  (    -1          0          0      )
                  (    -1          0          1      )

 cart.    s(10) = (  0.0000000  0.0000000  1.0000000 )
                  ( -1.0000000  0.0000000  0.0000000 )
                  (  0.0000000 -1.0000000  0.0000000 )


      isym = 11     120 deg rotation - cart. axis [1,-1,-1]      

 cryst.   s(11) = (     0          0          1      )
                  (     1          0          0      )
                  (     0          1          0      )

 cart.    s(11) = (  0.0000000  0.0000000 -1.0000000 )
                  ( -1.0000000  0.0000000  0.0000000 )
                  (  0.0000000  1.0000000  0.0000000 )


      isym = 12     120 deg rotation - cart. axis [-1,-1,1]      

 cryst.   s(12) = (     1         -1          0      )
                  (     0         -1          1      )
                  (     0         -1          0      )

 cart.    s(12) = (  0.0000000  0.0000000 -1.0000000 )
                  (  1.0000000  0.0000000  0.0000000 )
                  (  0.0000000 -1.0000000  0.0000000 )


      isym = 13     inv. 180 deg rotation - cart. axis [1,1,0]   

 cryst.   s(13) = (     0          1          0      )
                  (     1          0          0      )
                  (     0          0          1      )

 cart.    s(13) = (  0.0000000 -1.0000000  0.0000000 )
                  ( -1.0000000  0.0000000  0.0000000 )
                  (  0.0000000  0.0000000  1.0000000 )


      isym = 14     inv. 180 deg rotation - cart. axis [1,-1,0]  

 cryst.   s(14) = (     1          0         -1      )
                  (     0          1         -1      )
                  (     0          0         -1      )

 cart.    s(14) = (  0.0000000  1.0000000  0.0000000 )
                  (  1.0000000  0.0000000  0.0000000 )
                  (  0.0000000  0.0000000  1.0000000 )


      isym = 15     inv.  90 deg rotation - cart. axis [0,0,-1]  

 cryst.   s(15) = (     0         -1          0      )
                  (     0         -1          1      )
                  (     1         -1          0      )

 cart.    s(15) = (  0.0000000 -1.0000000  0.0000000 )
                  (  1.0000000  0.0000000  0.0000000 )
                  (  0.0000000  0.0000000 -1.0000000 )


      isym = 16     inv.  90 deg rotation - cart. axis [0,0,1]   

 cryst.   s(16) = (    -1          0          1      )
                  (    -1          0          0      )
                  (    -1          1          0      )

 cart.    s(16) = (  0.0000000  1.0000000  0.0000000 )
                  ( -1.0000000  0.0000000  0.0000000 )
                  (  0.0000000  0.0000000 -1.0000000 )


      isym = 17     inv. 180 deg rotation - cart. axis [1,0,1]   

 cryst.   s(17) = (     1          0          0      )
                  (     0          0          1      )
                  (     0          1          0      )

 cart.    s(17) = (  0.0000000  0.0000000 -1.0000000 )
                  (  0.0000000  1.0000000  0.0000000 )
                  ( -1.0000000  0.0000000  0.0000000 )


      isym = 18     inv. 180 deg rotation - cart. axis [-1,0,1]  

 cryst.   s(18) = (    -1          0          0      )
                  (    -1          1          0      )
                  (    -1          0          1      )

 cart.    s(18) = (  0.0000000  0.0000000  1.0000000 )
                  (  0.0000000  1.0000000  0.0000000 )
                  (  1.0000000  0.0000000  0.0000000 )


      isym = 19     inv.  90 deg rotation - cart. axis [0,1,0]   

 cryst.   s(19) = (     0         -1          1      )
                  (     1         -1          0      )
                  (     0         -1          0      )

 cart.    s(19) = (  0.0000000  0.0000000 -1.0000000 )
                  (  0.0000000 -1.0000000  0.0000000 )
                  (  1.0000000  0.0000000  0.0000000 )


      isym = 20     inv.  90 deg rotation - cart. axis [0,-1,0]  

 cryst.   s(20) = (     0          1         -1      )
                  (     0          0         -1      )
                  (     1          0         -1      )

 cart.    s(20) = (  0.0000000  0.0000000  1.0000000 )
                  (  0.0000000 -1.0000000  0.0000000 )
                  ( -1.0000000  0.0000000  0.0000000 )


      isym = 21     inv. 180 deg rotation - cart. axis [0,1,1]   

 cryst.   s(21) = (     1         -1          0      )
                  (     0         -1          0      )
                  (     0         -1          1      )

 cart.    s(21) = (  1.0000000  0.0000000  0.0000000 )
                  (  0.0000000  0.0000000 -1.0000000 )
                  (  0.0000000 -1.0000000  0.0000000 )


      isym = 22     inv. 180 deg rotation - cart. axis [0,1,-1]  

 cryst.   s(22) = (     0          0          1      )
                  (     0          1          0      )
                  (     1          0          0      )

 cart.    s(22) = (  1.0000000  0.0000000  0.0000000 )
                  (  0.0000000  0.0000000  1.0000000 )
                  (  0.0000000  1.0000000  0.0000000 )


      isym = 23     inv.  90 deg rotation - cart. axis [-1,0,0]  

 cryst.   s(23) = (     0          0         -1      )
                  (     1          0         -1      )
                  (     0          1         -1      )

 cart.    s(23) = ( -1.0000000  0.0000000  0.0000000 )
                  (  0.0000000  0.0000000 -1.0000000 )
                  (  0.0000000  1.0000000  0.0000000 )


      isym = 24     inv.  90 deg rotation - cart. axis [1,0,0]   

 cryst.   s(24) = (    -1          1          0      )
                  (    -1          0          1      )
                  (    -1          0          0      )

 cart.    s(24) = ( -1.0000000  0.0000000  0.0000000 )
                  (  0.0000000  0.0000000  1.0000000 )
                  (  0.0000000 -1.0000000  0.0000000 )


     point group T_d (-43m) 
     there are  5 classes
     the character table:

       E     8C3   3C2   6S4   6s_d 
A_1    1.00  1.00  1.00  1.00  1.00
A_2    1.00  1.00  1.00 -1.00 -1.00
E      2.00 -1.00  2.00  0.00  0.00
T_1    3.00  0.00 -1.00  1.00 -1.00
T_2    3.00  0.00 -1.00 -1.00  1.00

     the symmetry operations in each class:
     E        1
     3C2      2    3    4
     8C3      5    7    8    6   12    9   10   11
     6s_d    13   14   17   18   21   22
     6S4     15   16   20   19   23   24

   Cartesian axes

     site n.     atom                  positions (alat units)
         1           Si  tau(   1) = (   0.0000000   0.0000000   0.0000000  )
         2           Si  tau(   2) = (   0.2500000   0.2500000   0.2500000  )

   Crystallographic axes

     site n.     atom                  positions (cryst. coord.)
         1           Si  tau(   1) = (  0.0000000  0.0000000  0.0000000  )
         2           Si  tau(   2) = ( -0.2500000  0.7500000 -0.2500000  )

     number of k points=    29
                       cart. coord. in units 2pi/alat
        k(    1) = (   0.0000000   0.0000000   0.0000000), wk =   0.0039063
        k(    2) = (  -0.1250000   0.1250000  -0.1250000), wk =   0.0312500
        k(    3) = (  -0.2500000   0.2500000  -0.2500000), wk =   0.0312500
        k(    4) = (  -0.3750000   0.3750000  -0.3750000), wk =   0.0312500
        k(    5) = (   0.5000000  -0.5000000   0.5000000), wk =   0.0156250
        k(    6) = (   0.0000000   0.2500000   0.0000000), wk =   0.0234375
        k(    7) = (  -0.1250000   0.3750000  -0.1250000), wk =   0.0937500
        k(    8) = (  -0.2500000   0.5000000  -0.2500000), wk =   0.0937500
        k(    9) = (   0.6250000  -0.3750000   0.6250000), wk =   0.0937500
        k(   10) = (   0.5000000  -0.2500000   0.5000000), wk =   0.0937500
        k(   11) = (   0.3750000  -0.1250000   0.3750000), wk =   0.0937500
        k(   12) = (   0.2500000   0.0000000   0.2500000), wk =   0.0468750
        k(   13) = (   0.0000000   0.5000000   0.0000000), wk =   0.0234375
        k(   14) = (  -0.1250000   0.6250000  -0.1250000), wk =   0.0937500
        k(   15) = (   0.7500000  -0.2500000   0.7500000), wk =   0.0937500
        k(   16) = (   0.6250000  -0.1250000   0.6250000), wk =   0.0937500
        k(   17) = (   0.5000000   0.0000000   0.5000000), wk =   0.0468750
        k(   18) = (   0.0000000   0.7500000   0.0000000), wk =   0.0234375
        k(   19) = (   0.8750000  -0.1250000   0.8750000), wk =   0.0937500
        k(   20) = (   0.7500000   0.0000000   0.7500000), wk =   0.0468750
        k(   21) = (   0.0000000  -1.0000000   0.0000000), wk =   0.0117188
        k(   22) = (  -0.2500000   0.5000000   0.0000000), wk =   0.0937500
        k(   23) = (   0.6250000  -0.3750000   0.8750000), wk =   0.1875000
        k(   24) = (   0.5000000  -0.2500000   0.7500000), wk =   0.0937500
        k(   25) = (   0.7500000  -0.2500000   1.0000000), wk =   0.0937500
        k(   26) = (   0.6250000  -0.1250000   0.8750000), wk =   0.1875000
        k(   27) = (   0.5000000   0.0000000   0.7500000), wk =   0.0937500
        k(   28) = (  -0.2500000  -1.0000000   0.0000000), wk =   0.0468750
        k(   29) = (  -0.5000000  -1.0000000   0.0000000), wk =   0.0234375

                       cryst. coord.
        k(    1) = (   0.0000000   0.0000000   0.0000000), wk =   0.0039063
        k(    2) = (   0.0000000   0.0000000   0.1250000), wk =   0.0312500
        k(    3) = (   0.0000000   0.0000000   0.2500000), wk =   0.0312500
        k(    4) = (   0.0000000   0.0000000   0.3750000), wk =   0.0312500
        k(    5) = (   0.0000000   0.0000000  -0.5000000), wk =   0.0156250
        k(    6) = (   0.0000000   0.1250000   0.1250000), wk =   0.0234375
        k(    7) = (   0.0000000   0.1250000   0.2500000), wk =   0.0937500
        k(    8) = (   0.0000000   0.1250000   0.3750000), wk =   0.0937500
        k(    9) = (   0.0000000   0.1250000  -0.5000000), wk =   0.0937500
        k(   10) = (   0.0000000   0.1250000  -0.3750000), wk =   0.0937500
        k(   11) = (   0.0000000   0.1250000  -0.2500000), wk =   0.0937500
        k(   12) = (   0.0000000   0.1250000  -0.1250000), wk =   0.0468750
        k(   13) = (   0.0000000   0.2500000   0.2500000), wk =   0.0234375
        k(   14) = (   0.0000000   0.2500000   0.3750000), wk =   0.0937500
        k(   15) = (   0.0000000   0.2500000  -0.5000000), wk =   0.0937500
        k(   16) = (   0.0000000   0.2500000  -0.3750000), wk =   0.0937500
        k(   17) = (   0.0000000   0.2500000  -0.2500000), wk =   0.0468750
        k(   18) = (   0.0000000   0.3750000   0.3750000), wk =   0.0234375
        k(   19) = (   0.0000000   0.3750000  -0.5000000), wk =   0.0937500
        k(   20) = (   0.0000000   0.3750000  -0.3750000), wk =   0.0468750
        k(   21) = (   0.0000000  -0.5000000  -0.5000000), wk =   0.0117188
        k(   22) = (   0.1250000   0.2500000   0.3750000), wk =   0.0937500
        k(   23) = (   0.1250000   0.2500000  -0.5000000), wk =   0.1875000
        k(   24) = (   0.1250000   0.2500000  -0.3750000), wk =   0.0937500
        k(   25) = (   0.1250000   0.3750000  -0.5000000), wk =   0.0937500
        k(   26) = (   0.1250000   0.3750000  -0.3750000), wk =   0.1875000
        k(   27) = (   0.1250000   0.3750000  -0.2500000), wk =   0.0937500
        k(   28) = (   0.1250000  -0.5000000  -0.3750000), wk =   0.0468750
        k(   29) = (   0.2500000  -0.5000000  -0.2500000), wk =   0.0234375

     Dense  grid:     2085 G-vectors     FFT dimensions: (  18,  18,  18)

     Largest allocated arrays     est. size (Mb)     dimensions
        Kohn-Sham Wavefunctions         0.07 Mb     (     273,   16)
        NL pseudopotentials             0.03 Mb     (     273,    8)
        Each V/rho on FFT grid          0.09 Mb     (    5832)
        Each G-vector array             0.02 Mb     (    2085)
        G-vector shells                 0.00 Mb     (      54)
     Largest temporary arrays     est. size (Mb)     dimensions
        Auxiliary wavefunctions         0.27 Mb     (     273,   64)
        Each subspace H/S matrix        0.06 Mb     (      64,   64)
        Each <psi_i|beta_j> matrix      0.00 Mb     (       8,   16)

     The potential is recalculated from file :
     ./Si_nscf_yambo_kx8.save/charge-density.dat

     Starting wfc are    8 randomized atomic wfcs +    8 random wfc

     Band Structure Calculation
     Davidson diagonalization with overlap

     Computing kpt #:     1
     total cpu time spent up to now is        0.4 secs

     Computing kpt #:     2
     total cpu time spent up to now is        0.6 secs

     Computing kpt #:     3
     total cpu time spent up to now is        0.9 secs

     Computing kpt #:     4
     total cpu time spent up to now is        1.1 secs

     Computing kpt #:     5
     total cpu time spent up to now is        1.3 secs

     Computing kpt #:     6
     total cpu time spent up to now is        1.5 secs

     Computing kpt #:     7
     total cpu time spent up to now is        1.7 secs

     Computing kpt #:     8
     total cpu time spent up to now is        1.9 secs

     Computing kpt #:     9
     total cpu time spent up to now is        2.2 secs

     Computing kpt #:    10
     total cpu time spent up to now is        2.4 secs

     Computing kpt #:    11
     total cpu time spent up to now is        2.6 secs

     Computing kpt #:    12
     total cpu time spent up to now is        2.8 secs

     Computing kpt #:    13
     total cpu time spent up to now is        3.0 secs

     Computing kpt #:    14
     total cpu time spent up to now is        3.2 secs

     Computing kpt #:    15
     total cpu time spent up to now is        3.5 secs

     Computing kpt #:    16
     total cpu time spent up to now is        3.7 secs

     Computing kpt #:    17
     total cpu time spent up to now is        3.9 secs

     Computing kpt #:    18
     total cpu time spent up to now is        4.1 secs

     Computing kpt #:    19
     total cpu time spent up to now is        4.4 secs

     Computing kpt #:    20
     total cpu time spent up to now is        4.6 secs

     Computing kpt #:    21
     total cpu time spent up to now is        4.8 secs

     Computing kpt #:    22
     total cpu time spent up to now is        5.1 secs

     Computing kpt #:    23
     total cpu time spent up to now is        5.3 secs

     Computing kpt #:    24
     total cpu time spent up to now is        5.6 secs

     Computing kpt #:    25
     total cpu time spent up to now is        5.8 secs

     Computing kpt #:    26
     total cpu time spent up to now is        6.0 secs

     Computing kpt #:    27
     total cpu time spent up to now is        6.3 secs

     Computing kpt #:    28
     total cpu time spent up to now is        6.5 secs

     Computing kpt #:    29
     total cpu time spent up to now is        6.7 secs

     ethr =  1.25E-14,  avg # of iterations = 30.4

     total cpu time spent up to now is        6.7 secs

     End of band structure calculation

          k = 0.0000 0.0000 0.0000 (   259 PWs)   bands (ev):

    -5.7589   6.3137   6.3137   6.3137   8.8902   8.8902   8.8902   9.8462
    14.1053  14.2317  14.2317  17.6014  17.6014  17.6014  21.5063  29.7789

     occupation numbers 
     1.0000   1.0000   1.0000   1.0000   0.0000   0.0000   0.0000   0.0000
     0.0000   0.0000   0.0000   0.0000   0.0000   0.0000   0.0000   0.0000

          k =-0.1250 0.1250-0.1250 (   271 PWs)   bands (ev):

    -5.5667   4.7049   6.0116   6.0116   8.8575   9.3232   9.3232  11.1301
    13.7022  13.7022  14.9173  16.9871  18.8249  18.8249  22.8163  27.6848

     occupation numbers 
     1.0000   1.0000   1.0000   1.0000   0.0000   0.0000   0.0000   0.0000
     0.0000   0.0000   0.0000   0.0000   0.0000   0.0000   0.0000   0.0000

          k =-0.2500 0.2500-0.2500 (   268 PWs)   bands (ev):

    -4.9570   2.3418   5.5274   5.5274   8.3966   9.8512   9.8512  13.2760
    13.6389  13.6389  15.2113  18.1240  21.1527  21.1527  24.3979  24.4130

     occupation numbers 
     1.0000   1.0000   1.0000   1.0000   0.0000   0.0000   0.0000   0.0000
     0.0000   0.0000   0.0000   0.0000   0.0000   0.0000   0.0000   0.0000

          k =-0.3750 0.3750-0.3750 (   256 PWs)   bands (ev):

    -4.0361   0.2826   5.1979   5.1979   8.0501   9.7938   9.7938  14.0873
    15.0659  15.0659  16.0012  20.3302  20.3302  20.3949  23.0748  25.1027

     occupation numbers 
     1.0000   1.0000   1.0000   1.0000   0.0000   0.0000   0.0000   0.0000
     0.0000   0.0000   0.0000   0.0000   0.0000   0.0000   0.0000   0.0000

          k = 0.5000-0.5000 0.5000 (   266 PWs)   bands (ev):

    -3.3699  -0.7790   5.0819   5.0819   7.9229   9.6678   9.6678  13.9128
    17.1080  17.1080  17.6536  17.8167  17.8167  19.3373  25.8002  26.4047

     occupation numbers 
     1.0000   1.0000   1.0000   1.0000   0.0000   0.0000   0.0000   0.0000
     0.0000   0.0000   0.0000   0.0000   0.0000   0.0000   0.0000   0.0000

          k = 0.0000 0.2500 0.0000 (   267 PWs)   bands (ev):

    -5.4913   5.0119   5.4768   5.4768   8.3048  10.0609  10.0609  10.8143
    12.9328  14.5397  15.2223  18.0865  18.0865  18.5708  23.4588  27.1433

     occupation numbers 
     1.0000   1.0000   1.0000   1.0000   0.0000   0.0000   0.0000   0.0000
     0.0000   0.0000   0.0000   0.0000   0.0000   0.0000   0.0000   0.0000

          k =-0.1250 0.3750-0.1250 (   263 PWs)   bands (ev):

    -5.0145   3.0793   4.9535   5.0467   8.4484  10.1047  10.8432  11.0940
    13.9275  14.6884  16.2577  17.8945  19.5874  20.8720  24.1425  24.5679

     occupation numbers 
     1.0000   1.0000   1.0000   1.0000   0.0000   0.0000   0.0000   0.0000
     0.0000   0.0000   0.0000   0.0000   0.0000   0.0000   0.0000   0.0000

          k =-0.2500 0.5000-0.2500 (   267 PWs)   bands (ev):

    -4.1821   0.9702   4.4421   4.6784   8.5663  10.0087  10.8266  11.8142
    15.6570  15.8277  16.3020  19.7856  19.9577  21.6904  23.1537  24.1241

     occupation numbers 
     1.0000   1.0000   1.0000   1.0000   0.0000   0.0000   0.0000   0.0000
     0.0000   0.0000   0.0000   0.0000   0.0000   0.0000   0.0000   0.0000

          k = 0.6250-0.3750 0.6250 (   259 PWs)   bands (ev):

    -3.2850  -0.5355   3.9893   4.7065   8.5323   9.8573  10.4588  13.7303
    15.3023  17.0199  17.9237  18.1714  18.9257  21.5163  24.7457  26.2394

     occupation numbers 
     1.0000   1.0000   1.0000   1.0000   0.0000   0.0000   0.0000   0.0000
     0.0000   0.0000   0.0000   0.0000   0.0000   0.0000   0.0000   0.0000

          k = 0.5000-0.2500 0.5000 (   254 PWs)   bands (ev):

    -3.5374  -0.1496   3.7988   5.0140   8.7220   9.9574  10.2199  14.2353
    14.5611  15.5652  17.6091  18.9213  20.8583  21.0865  23.3135  25.1605

     occupation numbers 
     1.0000   1.0000   1.0000   1.0000   0.0000   0.0000   0.0000   0.0000
     0.0000   0.0000   0.0000   0.0000   0.0000   0.0000   0.0000   0.0000

          k = 0.3750-0.1250 0.3750 (   262 PWs)   bands (ev):

    -4.4937   1.6470   3.9393   5.5168   9.0965  10.0214  10.1912  12.6538
    12.8943  16.1129  16.5501  18.7840  20.4832  21.8451  23.0026  24.5055

     occupation numbers 
     1.0000   1.0000   1.0000   1.0000   0.0000   0.0000   0.0000   0.0000
     0.0000   0.0000   0.0000   0.0000   0.0000   0.0000   0.0000   0.0000

          k = 0.2500 0.0000 0.2500 (   273 PWs)   bands (ev):

    -5.2256   3.6309   4.6233   6.0105   9.4283   9.4576   9.6892  11.9272
    12.7570  14.4951  15.9671  17.5236  18.7393  20.9675  24.2213  24.4300

     occupation numbers 
     1.0000   1.0000   1.0000   1.0000   0.0000   0.0000   0.0000   0.0000
     0.0000   0.0000   0.0000   0.0000   0.0000   0.0000   0.0000   0.0000

          k = 0.0000 0.5000 0.0000 (   258 PWs)   bands (ev):

    -4.6628   2.8270   4.3679   4.3679   7.3936   9.4452  12.1591  12.1591
    14.4917  15.4737  17.6616  19.4497  19.4497  20.0880  23.8846  23.8846

     occupation numbers 
     1.0000   1.0000   1.0000   1.0000   0.0000   0.0000   0.0000   0.0000
     0.0000   0.0000   0.0000   0.0000   0.0000   0.0000   0.0000   0.0000

          k =-0.1250 0.6250-0.1250 (   257 PWs)   bands (ev):

    -3.9369   1.3776   3.5642   4.0417   7.6217   9.1919  12.4044  12.6790
    16.5376  16.5987  17.9922  19.7673  20.0953  21.3109  22.3559  23.5219

     occupation numbers 
     1.0000   1.0000   1.0000   1.0000   0.0000   0.0000   0.0000   0.0000
     0.0000   0.0000   0.0000   0.0000   0.0000   0.0000   0.0000   0.0000

          k = 0.7500-0.2500 0.7500 (   254 PWs)   bands (ev):

    -2.9840  -0.1067   2.6801   4.0455   7.7948  10.7739  12.1429  12.3230
    16.5917  17.0631  18.7452  19.1170  19.3716  23.2752  24.3576  25.1589

     occupation numbers 
     1.0000   1.0000   1.0000   1.0000   0.0000   0.0000   0.0000   0.0000
     0.0000   0.0000   0.0000   0.0000   0.0000   0.0000   0.0000   0.0000

          k = 0.6250-0.1250 0.6250 (   255 PWs)   bands (ev):

    -2.7663  -0.3795   2.2049   4.3735   8.1328  11.8248  11.8713  13.3486
    14.3948  14.4391  18.9147  21.4507  21.5127  22.5409  22.9196  25.0646

     occupation numbers 
     1.0000   1.0000   1.0000   1.0000   0.0000   0.0000   0.0000   0.0000
     0.0000   0.0000   0.0000   0.0000   0.0000   0.0000   0.0000   0.0000

          k = 0.5000 0.0000 0.5000 (   256 PWs)   bands (ev):

    -3.6771   0.8177   2.4387   4.9489   8.7753  11.1612  11.4877  12.5090
    12.8691  16.0398  18.9850  19.7277  19.7921  23.1035  23.7379  23.9342

     occupation numbers 
     1.0000   1.0000   1.0000   1.0000   0.0000   0.0000   0.0000   0.0000
     0.0000   0.0000   0.0000   0.0000   0.0000   0.0000   0.0000   0.0000

          k = 0.0000 0.7500 0.0000 (   254 PWs)   bands (ev):

    -3.3221   0.5751   3.6331   3.6331   6.8654   7.7985  14.4800  14.4800
    17.0216  17.1109  19.5724  19.5724  19.9348  21.8472  22.3776  23.2319

     occupation numbers 
     1.0000   1.0000   1.0000   1.0000   0.0000   0.0000   0.0000   0.0000
     0.0000   0.0000   0.0000   0.0000   0.0000   0.0000   0.0000   0.0000

          k = 0.8750-0.1250 0.8750 (   254 PWs)   bands (ev):

    -2.4032  -0.5285   2.7670   3.5547   7.1442   8.2477  14.7137  14.7770
    17.2047  17.3351  18.9151  19.2656  21.3458  21.5832  22.3564  25.1588

     occupation numbers 
     1.0000   1.0000   1.0000   1.0000   0.0000   0.0000   0.0000   0.0000
     0.0000   0.0000   0.0000   0.0000   0.0000   0.0000   0.0000   0.0000

          k = 0.7500 0.0000 0.7500 (   264 PWs)   bands (ev):

    -1.9457  -0.9483   1.8597   3.8176   7.4569  10.4481  13.8959  14.4247
    14.6162  14.9827  21.0848  21.5557  22.0722  22.1410  22.2575  23.5440

     occupation numbers 
     1.0000   1.0000   1.0000   1.0000   0.0000   0.0000   0.0000   0.0000
     0.0000   0.0000   0.0000   0.0000   0.0000   0.0000   0.0000   0.0000

          k = 0.0000-1.0000 0.0000 (   254 PWs)   bands (ev):

    -1.5346  -1.5346   3.3806   3.3806   6.9509   6.9509  16.5388  16.5388
    17.5425  17.5425  19.1484  19.1484  19.3830  19.3830  25.3255  25.3255

     occupation numbers 
     1.0000   1.0000   1.0000   1.0000   0.0000   0.0000   0.0000   0.0000
     0.0000   0.0000   0.0000   0.0000   0.0000   0.0000   0.0000   0.0000

          k =-0.2500 0.5000 0.0000 (   268 PWs)   bands (ev):

    -4.4159   2.0214   3.5109   4.8458   8.7493  10.2869  10.5070  11.8848
    14.2250  16.7207  17.3776  18.4858  20.3347  21.4689  22.4086  24.6764

     occupation numbers 
     1.0000   1.0000   1.0000   1.0000   0.0000   0.0000   0.0000   0.0000
     0.0000   0.0000   0.0000   0.0000   0.0000   0.0000   0.0000   0.0000

          k = 0.6250-0.3750 0.8750 (   259 PWs)   bands (ev):

    -3.4982   0.4316   2.9019   4.3251   9.1930   9.8905  11.3743  12.3325
    15.4727  16.1300  18.3729  19.4283  20.6815  21.5773  23.7502  24.7814

     occupation numbers 
     1.0000   1.0000   1.0000   1.0000   0.0000   0.0000   0.0000   0.0000
     0.0000   0.0000   0.0000   0.0000   0.0000   0.0000   0.0000   0.0000

          k = 0.5000-0.2500 0.7500 (   254 PWs)   bands (ev):

    -2.8158  -0.5476   2.7822   4.0866   9.4228   9.4263  12.3128  13.5058
    13.7848  17.0240  18.1506  18.7902  22.0123  22.1136  24.6304  24.9293

     occupation numbers 
     1.0000   1.0000   1.0000   1.0000   0.0000   0.0000   0.0000   0.0000
     0.0000   0.0000   0.0000   0.0000   0.0000   0.0000   0.0000   0.0000

          k = 0.7500-0.2500 1.0000 (   253 PWs)   bands (ev):

    -3.1161   0.3514   2.8448   3.4654   8.2347   8.9372  12.1487  14.4287
    16.6682  16.6741  19.3763  19.8484  20.6053  21.0534  23.0995  23.6646

     occupation numbers 
     1.0000   1.0000   1.0000   1.0000   0.0000   0.0000   0.0000   0.0000
     0.0000   0.0000   0.0000   0.0000   0.0000   0.0000   0.0000   0.0000

          k = 0.6250-0.1250 0.8750 (   258 PWs)   bands (ev):

    -2.2150  -0.6408   2.1176   3.2562   8.6783  10.5982  11.6594  13.8400
    14.8497  17.5827  18.7136  20.6730  21.8976  22.5315  23.9926  24.7685

     occupation numbers 
     1.0000   1.0000   1.0000   1.0000   0.0000   0.0000   0.0000   0.0000
     0.0000   0.0000   0.0000   0.0000   0.0000   0.0000   0.0000   0.0000

          k = 0.5000 0.0000 0.7500 (   262 PWs)   bands (ev):

    -2.5783  -0.2732   1.9426   3.6448   9.1758  10.8861  11.5790  13.4134
    14.2979  15.7038  20.5739  20.7029  20.9720  22.8677  23.0600  24.9454

     occupation numbers 
     1.0000   1.0000   1.0000   1.0000   0.0000   0.0000   0.0000   0.0000
     0.0000   0.0000   0.0000   0.0000   0.0000   0.0000   0.0000   0.0000

          k =-0.2500-1.0000 0.0000 (   254 PWs)   bands (ev):

    -1.4506  -1.4506   2.7857   2.7857   8.2474   8.2474  14.2668  14.2668
    17.0672  17.0672  19.3885  19.3885  22.0996  22.0996  23.8660  23.8660

     occupation numbers 
     1.0000   1.0000   1.0000   1.0000   0.0000   0.0000   0.0000   0.0000
     0.0000   0.0000   0.0000   0.0000   0.0000   0.0000   0.0000   0.0000

          k =-0.5000-1.0000 0.0000 (   264 PWs)   bands (ev):

    -1.3629  -1.3629   2.3248   2.3248  10.5670  10.5670  11.3851  11.3851
    17.0656  17.0656  19.5308  19.5308  22.8794  22.8794  24.9378  24.9378

     occupation numbers 
     1.0000   1.0000   1.0000   1.0000   0.0000   0.0000   0.0000   0.0000
     0.0000   0.0000   0.0000   0.0000   0.0000   0.0000   0.0000   0.0000

     highest occupied, lowest unoccupied level (ev):     6.3137    6.8654

     Writing output data file Si_nscf_yambo_kx8.save

     init_run     :      0.04s CPU      0.04s WALL (       1 calls)
     electrons    :      6.49s CPU      6.52s WALL (       1 calls)

     Called by init_run:
     wfcinit      :      0.00s CPU      0.00s WALL (       1 calls)
     potinit      :      0.00s CPU      0.00s WALL (       1 calls)

     Called by electrons:
     c_bands      :      6.49s CPU      6.52s WALL (       1 calls)
     v_of_rho     :      0.00s CPU      0.00s WALL (       1 calls)
     v_h          :      0.00s CPU      0.00s WALL (       1 calls)
     v_xc         :      0.00s CPU      0.00s WALL (       1 calls)

     Called by c_bands:
     init_us_2    :      0.00s CPU      0.00s WALL (      29 calls)
     cegterg      :      6.22s CPU      6.24s WALL (      59 calls)

     Called by sum_band:

     Called by *egterg:
     h_psi        :      4.25s CPU      4.29s WALL (     969 calls)
     g_psi        :      0.04s CPU      0.03s WALL (     881 calls)
     cdiaghg      :      1.17s CPU      1.19s WALL (     910 calls)
     cegterg:over :      0.50s CPU      0.48s WALL (     881 calls)
     cegterg:upda :      0.26s CPU      0.25s WALL (     881 calls)
     cegterg:last :      0.19s CPU      0.19s WALL (     174 calls)

     Called by h_psi:
     h_psi:vloc   :      4.13s CPU      4.17s WALL (     969 calls)
     h_psi:vnl    :      0.11s CPU      0.11s WALL (     969 calls)
     add_vuspsi   :      0.05s CPU      0.05s WALL (     969 calls)

     General routines
     calbec       :      0.06s CPU      0.05s WALL (     969 calls)
     fft          :      0.00s CPU      0.00s WALL (       3 calls)
     fftw         :      3.95s CPU      4.00s WALL (   17064 calls)
     davcio       :      0.00s CPU      0.00s WALL (      58 calls)

     Parallel routines
     fft_scatter  :      0.10s CPU      0.10s WALL (   17067 calls)

     PWSCF        :     6.85s CPU         6.89s WALL


   This run was terminated on:  21: 2:19  28Oct2016            

=------------------------------------------------------------------------------=
   JOB DONE.
=------------------------------------------------------------------------------=
