
     Program PWSCF v.5.1 (svn rev. 11219) starts on 28Oct2016 at 21:10:43 

     This program is part of the open-source Quantum ESPRESSO suite
     for quantum simulation of materials; please cite
         "P. Giannozzi et al., J. Phys.:Condens. Matter 21 395502 (2009);
          URL http://www.quantum-espresso.org", 
     in publications or presentations arising from this work. More details at
     http://www.quantum-espresso.org/quote

     Parallel version (MPI), running on     1 processors
     Waiting for input...
     Reading input from standard input

     Current dimensions of program PWSCF are:
     Max number of different atomic species (ntypx) = 10
     Max number of k-points (npk) =  40000
     Max angular momentum in pseudopotentials (lmaxx) =  3

     Atomic positions and unit cell read from directory:
     ./Si_nscf_yambo_kx16.save/


     Subspace diagonalization in iterative solution of the eigenvalue problem:
     a serial algorithm will be used


     G-vector sticks info
     --------------------
     sticks:   dense  smooth     PW     G-vecs:    dense   smooth      PW
     Sum         211     211     85                 2085     2085     459



     bravais-lattice index     =            2
     lattice parameter (alat)  =      10.1830  a.u.
     unit-cell volume          =     263.9777 (a.u.)^3
     number of atoms/cell      =            2
     number of atomic types    =            1
     number of electrons       =         8.00
     number of Kohn-Sham states=           16
     kinetic-energy cutoff     =      15.0000  Ry
     charge density cutoff     =      60.0000  Ry
     Exchange-correlation      =  SLA  PZ   NOGX NOGC ( 1  1  0  0 0 0)

     celldm(1)=  10.183000  celldm(2)=   0.000000  celldm(3)=   0.000000
     celldm(4)=   0.000000  celldm(5)=   0.000000  celldm(6)=   0.000000

     crystal axes: (cart. coord. in units of alat)
               a(1) = (  -0.500000   0.000000   0.500000 )  
               a(2) = (   0.000000   0.500000   0.500000 )  
               a(3) = (  -0.500000   0.500000   0.000000 )  

     reciprocal axes: (cart. coord. in units 2 pi/alat)
               b(1) = ( -1.000000 -1.000000  1.000000 )  
               b(2) = (  1.000000  1.000000  1.000000 )  
               b(3) = ( -1.000000  1.000000 -1.000000 )  


     PseudoPot. # 1 for Si read from file:
     ./Si.vbc.UPF
     MD5 check sum: 7974b67c806a44bbea7c2da40a3c413a
     Pseudo is Norm-conserving, Zval =  4.0
     Generated by new atomic code, or converted to UPF format
     Using radial grid of  431 points,  2 beta functions with: 
                l(1) =   0
                l(2) =   1

     atomic species   valence    mass     pseudopotential
        Si             4.00    28.08600     Si( 1.00)

     24 Sym. Ops. (no inversion) found


                                    s                        frac. trans.

      isym =  1     identity                                     

 cryst.   s( 1) = (     1          0          0      )
                  (     0          1          0      )
                  (     0          0          1      )

 cart.    s( 1) = (  1.0000000  0.0000000  0.0000000 )
                  (  0.0000000  1.0000000  0.0000000 )
                  (  0.0000000  0.0000000  1.0000000 )


      isym =  2     180 deg rotation - cart. axis [0,0,1]        

 cryst.   s( 2) = (     0          1         -1      )
                  (     1          0         -1      )
                  (     0          0         -1      )

 cart.    s( 2) = ( -1.0000000  0.0000000  0.0000000 )
                  (  0.0000000 -1.0000000  0.0000000 )
                  (  0.0000000  0.0000000  1.0000000 )


      isym =  3     180 deg rotation - cart. axis [0,1,0]        

 cryst.   s( 3) = (    -1          0          0      )
                  (    -1          0          1      )
                  (    -1          1          0      )

 cart.    s( 3) = ( -1.0000000  0.0000000  0.0000000 )
                  (  0.0000000  1.0000000  0.0000000 )
                  (  0.0000000  0.0000000 -1.0000000 )


      isym =  4     180 deg rotation - cart. axis [1,0,0]        

 cryst.   s( 4) = (     0         -1          1      )
                  (     0         -1          0      )
                  (     1         -1          0      )

 cart.    s( 4) = (  1.0000000  0.0000000  0.0000000 )
                  (  0.0000000 -1.0000000  0.0000000 )
                  (  0.0000000  0.0000000 -1.0000000 )


      isym =  5     120 deg rotation - cart. axis [-1,-1,-1]     

 cryst.   s( 5) = (    -1          0          1      )
                  (    -1          1          0      )
                  (    -1          0          0      )

 cart.    s( 5) = (  0.0000000  1.0000000  0.0000000 )
                  (  0.0000000  0.0000000  1.0000000 )
                  (  1.0000000  0.0000000  0.0000000 )


      isym =  6     120 deg rotation - cart. axis [-1,1,1]       

 cryst.   s( 6) = (     0          1          0      )
                  (     0          0          1      )
                  (     1          0          0      )

 cart.    s( 6) = (  0.0000000 -1.0000000  0.0000000 )
                  (  0.0000000  0.0000000  1.0000000 )
                  ( -1.0000000  0.0000000  0.0000000 )


      isym =  7     120 deg rotation - cart. axis [1,1,-1]       

 cryst.   s( 7) = (     1          0         -1      )
                  (     0          0         -1      )
                  (     0          1         -1      )

 cart.    s( 7) = (  0.0000000  1.0000000  0.0000000 )
                  (  0.0000000  0.0000000 -1.0000000 )
                  ( -1.0000000  0.0000000  0.0000000 )


      isym =  8     120 deg rotation - cart. axis [1,-1,1]       

 cryst.   s( 8) = (     0         -1          0      )
                  (     1         -1          0      )
                  (     0         -1          1      )

 cart.    s( 8) = (  0.0000000 -1.0000000  0.0000000 )
                  (  0.0000000  0.0000000 -1.0000000 )
                  (  1.0000000  0.0000000  0.0000000 )


      isym =  9     120 deg rotation - cart. axis [1,1,1]        

 cryst.   s( 9) = (     0          0         -1      )
                  (     0          1         -1      )
                  (     1          0         -1      )

 cart.    s( 9) = (  0.0000000  0.0000000  1.0000000 )
                  (  1.0000000  0.0000000  0.0000000 )
                  (  0.0000000  1.0000000  0.0000000 )


      isym = 10     120 deg rotation - cart. axis [-1,1,-1]      

 cryst.   s(10) = (    -1          1          0      )
                  (    -1          0          0      )
                  (    -1          0          1      )

 cart.    s(10) = (  0.0000000  0.0000000  1.0000000 )
                  ( -1.0000000  0.0000000  0.0000000 )
                  (  0.0000000 -1.0000000  0.0000000 )


      isym = 11     120 deg rotation - cart. axis [1,-1,-1]      

 cryst.   s(11) = (     0          0          1      )
                  (     1          0          0      )
                  (     0          1          0      )

 cart.    s(11) = (  0.0000000  0.0000000 -1.0000000 )
                  ( -1.0000000  0.0000000  0.0000000 )
                  (  0.0000000  1.0000000  0.0000000 )


      isym = 12     120 deg rotation - cart. axis [-1,-1,1]      

 cryst.   s(12) = (     1         -1          0      )
                  (     0         -1          1      )
                  (     0         -1          0      )

 cart.    s(12) = (  0.0000000  0.0000000 -1.0000000 )
                  (  1.0000000  0.0000000  0.0000000 )
                  (  0.0000000 -1.0000000  0.0000000 )


      isym = 13     inv. 180 deg rotation - cart. axis [1,1,0]   

 cryst.   s(13) = (     0          1          0      )
                  (     1          0          0      )
                  (     0          0          1      )

 cart.    s(13) = (  0.0000000 -1.0000000  0.0000000 )
                  ( -1.0000000  0.0000000  0.0000000 )
                  (  0.0000000  0.0000000  1.0000000 )


      isym = 14     inv. 180 deg rotation - cart. axis [1,-1,0]  

 cryst.   s(14) = (     1          0         -1      )
                  (     0          1         -1      )
                  (     0          0         -1      )

 cart.    s(14) = (  0.0000000  1.0000000  0.0000000 )
                  (  1.0000000  0.0000000  0.0000000 )
                  (  0.0000000  0.0000000  1.0000000 )


      isym = 15     inv.  90 deg rotation - cart. axis [0,0,-1]  

 cryst.   s(15) = (     0         -1          0      )
                  (     0         -1          1      )
                  (     1         -1          0      )

 cart.    s(15) = (  0.0000000 -1.0000000  0.0000000 )
                  (  1.0000000  0.0000000  0.0000000 )
                  (  0.0000000  0.0000000 -1.0000000 )


      isym = 16     inv.  90 deg rotation - cart. axis [0,0,1]   

 cryst.   s(16) = (    -1          0          1      )
                  (    -1          0          0      )
                  (    -1          1          0      )

 cart.    s(16) = (  0.0000000  1.0000000  0.0000000 )
                  ( -1.0000000  0.0000000  0.0000000 )
                  (  0.0000000  0.0000000 -1.0000000 )


      isym = 17     inv. 180 deg rotation - cart. axis [1,0,1]   

 cryst.   s(17) = (     1          0          0      )
                  (     0          0          1      )
                  (     0          1          0      )

 cart.    s(17) = (  0.0000000  0.0000000 -1.0000000 )
                  (  0.0000000  1.0000000  0.0000000 )
                  ( -1.0000000  0.0000000  0.0000000 )


      isym = 18     inv. 180 deg rotation - cart. axis [-1,0,1]  

 cryst.   s(18) = (    -1          0          0      )
                  (    -1          1          0      )
                  (    -1          0          1      )

 cart.    s(18) = (  0.0000000  0.0000000  1.0000000 )
                  (  0.0000000  1.0000000  0.0000000 )
                  (  1.0000000  0.0000000  0.0000000 )


      isym = 19     inv.  90 deg rotation - cart. axis [0,1,0]   

 cryst.   s(19) = (     0         -1          1      )
                  (     1         -1          0      )
                  (     0         -1          0      )

 cart.    s(19) = (  0.0000000  0.0000000 -1.0000000 )
                  (  0.0000000 -1.0000000  0.0000000 )
                  (  1.0000000  0.0000000  0.0000000 )


      isym = 20     inv.  90 deg rotation - cart. axis [0,-1,0]  

 cryst.   s(20) = (     0          1         -1      )
                  (     0          0         -1      )
                  (     1          0         -1      )

 cart.    s(20) = (  0.0000000  0.0000000  1.0000000 )
                  (  0.0000000 -1.0000000  0.0000000 )
                  ( -1.0000000  0.0000000  0.0000000 )


      isym = 21     inv. 180 deg rotation - cart. axis [0,1,1]   

 cryst.   s(21) = (     1         -1          0      )
                  (     0         -1          0      )
                  (     0         -1          1      )

 cart.    s(21) = (  1.0000000  0.0000000  0.0000000 )
                  (  0.0000000  0.0000000 -1.0000000 )
                  (  0.0000000 -1.0000000  0.0000000 )


      isym = 22     inv. 180 deg rotation - cart. axis [0,1,-1]  

 cryst.   s(22) = (     0          0          1      )
                  (     0          1          0      )
                  (     1          0          0      )

 cart.    s(22) = (  1.0000000  0.0000000  0.0000000 )
                  (  0.0000000  0.0000000  1.0000000 )
                  (  0.0000000  1.0000000  0.0000000 )


      isym = 23     inv.  90 deg rotation - cart. axis [-1,0,0]  

 cryst.   s(23) = (     0          0         -1      )
                  (     1          0         -1      )
                  (     0          1         -1      )

 cart.    s(23) = ( -1.0000000  0.0000000  0.0000000 )
                  (  0.0000000  0.0000000 -1.0000000 )
                  (  0.0000000  1.0000000  0.0000000 )


      isym = 24     inv.  90 deg rotation - cart. axis [1,0,0]   

 cryst.   s(24) = (    -1          1          0      )
                  (    -1          0          1      )
                  (    -1          0          0      )

 cart.    s(24) = ( -1.0000000  0.0000000  0.0000000 )
                  (  0.0000000  0.0000000  1.0000000 )
                  (  0.0000000 -1.0000000  0.0000000 )


     point group T_d (-43m) 
     there are  5 classes
     the character table:

       E     8C3   3C2   6S4   6s_d 
A_1    1.00  1.00  1.00  1.00  1.00
A_2    1.00  1.00  1.00 -1.00 -1.00
E      2.00 -1.00  2.00  0.00  0.00
T_1    3.00  0.00 -1.00  1.00 -1.00
T_2    3.00  0.00 -1.00 -1.00  1.00

     the symmetry operations in each class:
     E        1
     3C2      2    3    4
     8C3      5    7    8    6   12    9   10   11
     6s_d    13   14   17   18   21   22
     6S4     15   16   20   19   23   24

   Cartesian axes

     site n.     atom                  positions (alat units)
         1           Si  tau(   1) = (   0.0000000   0.0000000   0.0000000  )
         2           Si  tau(   2) = (   0.2500000   0.2500000   0.2500000  )

   Crystallographic axes

     site n.     atom                  positions (cryst. coord.)
         1           Si  tau(   1) = (  0.0000000  0.0000000  0.0000000  )
         2           Si  tau(   2) = ( -0.2500000  0.7500000 -0.2500000  )

     number of k points=   145
                       cart. coord. in units 2pi/alat
        k(    1) = (   0.0000000   0.0000000   0.0000000), wk =   0.0004883
        k(    2) = (  -0.0625000   0.0625000  -0.0625000), wk =   0.0039063
        k(    3) = (  -0.1250000   0.1250000  -0.1250000), wk =   0.0039063
        k(    4) = (  -0.1875000   0.1875000  -0.1875000), wk =   0.0039063
        k(    5) = (  -0.2500000   0.2500000  -0.2500000), wk =   0.0039063
        k(    6) = (  -0.3125000   0.3125000  -0.3125000), wk =   0.0039063
        k(    7) = (  -0.3750000   0.3750000  -0.3750000), wk =   0.0039063
        k(    8) = (  -0.4375000   0.4375000  -0.4375000), wk =   0.0039063
        k(    9) = (   0.5000000  -0.5000000   0.5000000), wk =   0.0019531
        k(   10) = (   0.0000000   0.1250000   0.0000000), wk =   0.0029297
        k(   11) = (  -0.0625000   0.1875000  -0.0625000), wk =   0.0117188
        k(   12) = (  -0.1250000   0.2500000  -0.1250000), wk =   0.0117188
        k(   13) = (  -0.1875000   0.3125000  -0.1875000), wk =   0.0117188
        k(   14) = (  -0.2500000   0.3750000  -0.2500000), wk =   0.0117188
        k(   15) = (  -0.3125000   0.4375000  -0.3125000), wk =   0.0117188
        k(   16) = (  -0.3750000   0.5000000  -0.3750000), wk =   0.0117188
        k(   17) = (   0.5625000  -0.4375000   0.5625000), wk =   0.0117188
        k(   18) = (   0.5000000  -0.3750000   0.5000000), wk =   0.0117188
        k(   19) = (   0.4375000  -0.3125000   0.4375000), wk =   0.0117188
        k(   20) = (   0.3750000  -0.2500000   0.3750000), wk =   0.0117188
        k(   21) = (   0.3125000  -0.1875000   0.3125000), wk =   0.0117188
        k(   22) = (   0.2500000  -0.1250000   0.2500000), wk =   0.0117188
        k(   23) = (   0.1875000  -0.0625000   0.1875000), wk =   0.0117188
        k(   24) = (   0.1250000   0.0000000   0.1250000), wk =   0.0058594
        k(   25) = (   0.0000000   0.2500000   0.0000000), wk =   0.0029297
        k(   26) = (  -0.0625000   0.3125000  -0.0625000), wk =   0.0117188
        k(   27) = (  -0.1250000   0.3750000  -0.1250000), wk =   0.0117188
        k(   28) = (  -0.1875000   0.4375000  -0.1875000), wk =   0.0117188
        k(   29) = (  -0.2500000   0.5000000  -0.2500000), wk =   0.0117188
        k(   30) = (  -0.3125000   0.5625000  -0.3125000), wk =   0.0117188
        k(   31) = (   0.6250000  -0.3750000   0.6250000), wk =   0.0117188
        k(   32) = (   0.5625000  -0.3125000   0.5625000), wk =   0.0117188
        k(   33) = (   0.5000000  -0.2500000   0.5000000), wk =   0.0117188
        k(   34) = (   0.4375000  -0.1875000   0.4375000), wk =   0.0117188
        k(   35) = (   0.3750000  -0.1250000   0.3750000), wk =   0.0117188
        k(   36) = (   0.3125000  -0.0625000   0.3125000), wk =   0.0117188
        k(   37) = (   0.2500000   0.0000000   0.2500000), wk =   0.0058594
        k(   38) = (   0.0000000   0.3750000   0.0000000), wk =   0.0029297
        k(   39) = (  -0.0625000   0.4375000  -0.0625000), wk =   0.0117188
        k(   40) = (  -0.1250000   0.5000000  -0.1250000), wk =   0.0117188
        k(   41) = (  -0.1875000   0.5625000  -0.1875000), wk =   0.0117188
        k(   42) = (  -0.2500000   0.6250000  -0.2500000), wk =   0.0117188
        k(   43) = (   0.6875000  -0.3125000   0.6875000), wk =   0.0117188
        k(   44) = (   0.6250000  -0.2500000   0.6250000), wk =   0.0117188
        k(   45) = (   0.5625000  -0.1875000   0.5625000), wk =   0.0117188
        k(   46) = (   0.5000000  -0.1250000   0.5000000), wk =   0.0117188
        k(   47) = (   0.4375000  -0.0625000   0.4375000), wk =   0.0117188
        k(   48) = (   0.3750000   0.0000000   0.3750000), wk =   0.0058594
        k(   49) = (   0.0000000   0.5000000   0.0000000), wk =   0.0029297
        k(   50) = (  -0.0625000   0.5625000  -0.0625000), wk =   0.0117188
        k(   51) = (  -0.1250000   0.6250000  -0.1250000), wk =   0.0117188
        k(   52) = (  -0.1875000   0.6875000  -0.1875000), wk =   0.0117188
        k(   53) = (   0.7500000  -0.2500000   0.7500000), wk =   0.0117188
        k(   54) = (   0.6875000  -0.1875000   0.6875000), wk =   0.0117188
        k(   55) = (   0.6250000  -0.1250000   0.6250000), wk =   0.0117188
        k(   56) = (   0.5625000  -0.0625000   0.5625000), wk =   0.0117188
        k(   57) = (   0.5000000   0.0000000   0.5000000), wk =   0.0058594
        k(   58) = (   0.0000000   0.6250000   0.0000000), wk =   0.0029297
        k(   59) = (  -0.0625000   0.6875000  -0.0625000), wk =   0.0117188
        k(   60) = (  -0.1250000   0.7500000  -0.1250000), wk =   0.0117188
        k(   61) = (   0.8125000  -0.1875000   0.8125000), wk =   0.0117188
        k(   62) = (   0.7500000  -0.1250000   0.7500000), wk =   0.0117188
        k(   63) = (   0.6875000  -0.0625000   0.6875000), wk =   0.0117188
        k(   64) = (   0.6250000   0.0000000   0.6250000), wk =   0.0058594
        k(   65) = (   0.0000000   0.7500000   0.0000000), wk =   0.0029297
        k(   66) = (  -0.0625000   0.8125000  -0.0625000), wk =   0.0117188
        k(   67) = (   0.8750000  -0.1250000   0.8750000), wk =   0.0117188
        k(   68) = (   0.8125000  -0.0625000   0.8125000), wk =   0.0117188
        k(   69) = (   0.7500000   0.0000000   0.7500000), wk =   0.0058594
        k(   70) = (   0.0000000   0.8750000   0.0000000), wk =   0.0029297
        k(   71) = (   0.9375000  -0.0625000   0.9375000), wk =   0.0117188
        k(   72) = (   0.8750000   0.0000000   0.8750000), wk =   0.0058594
        k(   73) = (   0.0000000  -1.0000000   0.0000000), wk =   0.0014648
        k(   74) = (  -0.1250000   0.2500000   0.0000000), wk =   0.0117188
        k(   75) = (  -0.1875000   0.3125000  -0.0625000), wk =   0.0234375
        k(   76) = (  -0.2500000   0.3750000  -0.1250000), wk =   0.0234375
        k(   77) = (  -0.3125000   0.4375000  -0.1875000), wk =   0.0234375
        k(   78) = (  -0.3750000   0.5000000  -0.2500000), wk =   0.0234375
        k(   79) = (   0.5625000  -0.4375000   0.6875000), wk =   0.0234375
        k(   80) = (   0.5000000  -0.3750000   0.6250000), wk =   0.0117188
        k(   81) = (  -0.1250000   0.3750000   0.0000000), wk =   0.0117188
        k(   82) = (  -0.1875000   0.4375000  -0.0625000), wk =   0.0234375
        k(   83) = (  -0.2500000   0.5000000  -0.1250000), wk =   0.0234375
        k(   84) = (  -0.3125000   0.5625000  -0.1875000), wk =   0.0234375
        k(   85) = (   0.6250000  -0.3750000   0.7500000), wk =   0.0234375
        k(   86) = (   0.5625000  -0.3125000   0.6875000), wk =   0.0234375
        k(   87) = (   0.5000000  -0.2500000   0.6250000), wk =   0.0234375
        k(   88) = (   0.4375000  -0.1875000   0.5625000), wk =   0.0234375
        k(   89) = (   0.3750000  -0.1250000   0.5000000), wk =   0.0234375
        k(   90) = (   0.3125000  -0.0625000   0.4375000), wk =   0.0234375
        k(   91) = (   0.2500000   0.0000000   0.3750000), wk =   0.0117188
        k(   92) = (  -0.1250000   0.5000000   0.0000000), wk =   0.0117188
        k(   93) = (  -0.1875000   0.5625000  -0.0625000), wk =   0.0234375
        k(   94) = (  -0.2500000   0.6250000  -0.1250000), wk =   0.0234375
        k(   95) = (   0.6875000  -0.3125000   0.8125000), wk =   0.0234375
        k(   96) = (   0.6250000  -0.2500000   0.7500000), wk =   0.0234375
        k(   97) = (   0.5625000  -0.1875000   0.6875000), wk =   0.0234375
        k(   98) = (   0.5000000  -0.1250000   0.6250000), wk =   0.0234375
        k(   99) = (   0.4375000  -0.0625000   0.5625000), wk =   0.0234375
        k(  100) = (   0.3750000   0.0000000   0.5000000), wk =   0.0117188
        k(  101) = (  -0.1250000   0.6250000   0.0000000), wk =   0.0117188
        k(  102) = (  -0.1875000   0.6875000  -0.0625000), wk =   0.0234375
        k(  103) = (   0.7500000  -0.2500000   0.8750000), wk =   0.0234375
        k(  104) = (   0.6875000  -0.1875000   0.8125000), wk =   0.0234375
        k(  105) = (   0.6250000  -0.1250000   0.7500000), wk =   0.0234375
        k(  106) = (   0.5625000  -0.0625000   0.6875000), wk =   0.0234375
        k(  107) = (   0.5000000   0.0000000   0.6250000), wk =   0.0117188
        k(  108) = (  -0.1250000   0.7500000   0.0000000), wk =   0.0117188
        k(  109) = (   0.8125000  -0.1875000   0.9375000), wk =   0.0234375
        k(  110) = (   0.7500000  -0.1250000   0.8750000), wk =   0.0234375
        k(  111) = (   0.6875000  -0.0625000   0.8125000), wk =   0.0234375
        k(  112) = (   0.6250000   0.0000000   0.7500000), wk =   0.0117188
        k(  113) = (   0.8750000  -0.1250000   1.0000000), wk =   0.0117188
        k(  114) = (   0.8125000  -0.0625000   0.9375000), wk =   0.0234375
        k(  115) = (   0.7500000   0.0000000   0.8750000), wk =   0.0117188
        k(  116) = (  -0.1250000  -1.0000000   0.0000000), wk =   0.0058594
        k(  117) = (  -0.2500000   0.5000000   0.0000000), wk =   0.0117188
        k(  118) = (  -0.3125000   0.5625000  -0.0625000), wk =   0.0234375
        k(  119) = (   0.6250000  -0.3750000   0.8750000), wk =   0.0234375
        k(  120) = (   0.5625000  -0.3125000   0.8125000), wk =   0.0234375
        k(  121) = (   0.5000000  -0.2500000   0.7500000), wk =   0.0117188
        k(  122) = (  -0.2500000   0.6250000   0.0000000), wk =   0.0117188
        k(  123) = (   0.6875000  -0.3125000   0.9375000), wk =   0.0234375
        k(  124) = (   0.6250000  -0.2500000   0.8750000), wk =   0.0234375
        k(  125) = (   0.5625000  -0.1875000   0.8125000), wk =   0.0234375
        k(  126) = (   0.5000000  -0.1250000   0.7500000), wk =   0.0234375
        k(  127) = (   0.4375000  -0.0625000   0.6875000), wk =   0.0234375
        k(  128) = (   0.3750000   0.0000000   0.6250000), wk =   0.0117188
        k(  129) = (   0.7500000  -0.2500000   1.0000000), wk =   0.0117188
        k(  130) = (   0.6875000  -0.1875000   0.9375000), wk =   0.0234375
        k(  131) = (   0.6250000  -0.1250000   0.8750000), wk =   0.0234375
        k(  132) = (   0.5625000  -0.0625000   0.8125000), wk =   0.0234375
        k(  133) = (   0.5000000   0.0000000   0.7500000), wk =   0.0117188
        k(  134) = (   0.7500000  -0.1250000   1.0000000), wk =   0.0117188
        k(  135) = (   0.6875000  -0.0625000   0.9375000), wk =   0.0234375
        k(  136) = (   0.6250000   0.0000000   0.8750000), wk =   0.0117188
        k(  137) = (  -0.2500000  -1.0000000   0.0000000), wk =   0.0058594
        k(  138) = (   0.6250000  -0.2500000   1.0000000), wk =   0.0117188
        k(  139) = (   0.5625000  -0.1875000   0.9375000), wk =   0.0234375
        k(  140) = (   0.5000000  -0.1250000   0.8750000), wk =   0.0117188
        k(  141) = (   0.6250000  -0.1250000   1.0000000), wk =   0.0117188
        k(  142) = (   0.5625000  -0.0625000   0.9375000), wk =   0.0234375
        k(  143) = (   0.5000000   0.0000000   0.8750000), wk =   0.0117188
        k(  144) = (  -0.3750000  -1.0000000   0.0000000), wk =   0.0058594
        k(  145) = (  -0.5000000  -1.0000000   0.0000000), wk =   0.0029297

                       cryst. coord.
        k(    1) = (   0.0000000   0.0000000   0.0000000), wk =   0.0004883
        k(    2) = (   0.0000000   0.0000000   0.0625000), wk =   0.0039063
        k(    3) = (   0.0000000   0.0000000   0.1250000), wk =   0.0039063
        k(    4) = (   0.0000000   0.0000000   0.1875000), wk =   0.0039063
        k(    5) = (   0.0000000   0.0000000   0.2500000), wk =   0.0039063
        k(    6) = (   0.0000000   0.0000000   0.3125000), wk =   0.0039063
        k(    7) = (   0.0000000   0.0000000   0.3750000), wk =   0.0039063
        k(    8) = (   0.0000000   0.0000000   0.4375000), wk =   0.0039063
        k(    9) = (   0.0000000   0.0000000  -0.5000000), wk =   0.0019531
        k(   10) = (   0.0000000   0.0625000   0.0625000), wk =   0.0029297
        k(   11) = (   0.0000000   0.0625000   0.1250000), wk =   0.0117188
        k(   12) = (   0.0000000   0.0625000   0.1875000), wk =   0.0117188
        k(   13) = (   0.0000000   0.0625000   0.2500000), wk =   0.0117188
        k(   14) = (   0.0000000   0.0625000   0.3125000), wk =   0.0117188
        k(   15) = (   0.0000000   0.0625000   0.3750000), wk =   0.0117188
        k(   16) = (   0.0000000   0.0625000   0.4375000), wk =   0.0117188
        k(   17) = (   0.0000000   0.0625000  -0.5000000), wk =   0.0117188
        k(   18) = (   0.0000000   0.0625000  -0.4375000), wk =   0.0117188
        k(   19) = (   0.0000000   0.0625000  -0.3750000), wk =   0.0117188
        k(   20) = (   0.0000000   0.0625000  -0.3125000), wk =   0.0117188
        k(   21) = (   0.0000000   0.0625000  -0.2500000), wk =   0.0117188
        k(   22) = (   0.0000000   0.0625000  -0.1875000), wk =   0.0117188
        k(   23) = (   0.0000000   0.0625000  -0.1250000), wk =   0.0117188
        k(   24) = (   0.0000000   0.0625000  -0.0625000), wk =   0.0058594
        k(   25) = (   0.0000000   0.1250000   0.1250000), wk =   0.0029297
        k(   26) = (   0.0000000   0.1250000   0.1875000), wk =   0.0117188
        k(   27) = (   0.0000000   0.1250000   0.2500000), wk =   0.0117188
        k(   28) = (   0.0000000   0.1250000   0.3125000), wk =   0.0117188
        k(   29) = (   0.0000000   0.1250000   0.3750000), wk =   0.0117188
        k(   30) = (   0.0000000   0.1250000   0.4375000), wk =   0.0117188
        k(   31) = (   0.0000000   0.1250000  -0.5000000), wk =   0.0117188
        k(   32) = (   0.0000000   0.1250000  -0.4375000), wk =   0.0117188
        k(   33) = (   0.0000000   0.1250000  -0.3750000), wk =   0.0117188
        k(   34) = (   0.0000000   0.1250000  -0.3125000), wk =   0.0117188
        k(   35) = (   0.0000000   0.1250000  -0.2500000), wk =   0.0117188
        k(   36) = (   0.0000000   0.1250000  -0.1875000), wk =   0.0117188
        k(   37) = (   0.0000000   0.1250000  -0.1250000), wk =   0.0058594
        k(   38) = (   0.0000000   0.1875000   0.1875000), wk =   0.0029297
        k(   39) = (   0.0000000   0.1875000   0.2500000), wk =   0.0117188
        k(   40) = (   0.0000000   0.1875000   0.3125000), wk =   0.0117188
        k(   41) = (   0.0000000   0.1875000   0.3750000), wk =   0.0117188
        k(   42) = (   0.0000000   0.1875000   0.4375000), wk =   0.0117188
        k(   43) = (   0.0000000   0.1875000  -0.5000000), wk =   0.0117188
        k(   44) = (   0.0000000   0.1875000  -0.4375000), wk =   0.0117188
        k(   45) = (   0.0000000   0.1875000  -0.3750000), wk =   0.0117188
        k(   46) = (   0.0000000   0.1875000  -0.3125000), wk =   0.0117188
        k(   47) = (   0.0000000   0.1875000  -0.2500000), wk =   0.0117188
        k(   48) = (   0.0000000   0.1875000  -0.1875000), wk =   0.0058594
        k(   49) = (   0.0000000   0.2500000   0.2500000), wk =   0.0029297
        k(   50) = (   0.0000000   0.2500000   0.3125000), wk =   0.0117188
        k(   51) = (   0.0000000   0.2500000   0.3750000), wk =   0.0117188
        k(   52) = (   0.0000000   0.2500000   0.4375000), wk =   0.0117188
        k(   53) = (   0.0000000   0.2500000  -0.5000000), wk =   0.0117188
        k(   54) = (   0.0000000   0.2500000  -0.4375000), wk =   0.0117188
        k(   55) = (   0.0000000   0.2500000  -0.3750000), wk =   0.0117188
        k(   56) = (   0.0000000   0.2500000  -0.3125000), wk =   0.0117188
        k(   57) = (   0.0000000   0.2500000  -0.2500000), wk =   0.0058594
        k(   58) = (   0.0000000   0.3125000   0.3125000), wk =   0.0029297
        k(   59) = (   0.0000000   0.3125000   0.3750000), wk =   0.0117188
        k(   60) = (   0.0000000   0.3125000   0.4375000), wk =   0.0117188
        k(   61) = (   0.0000000   0.3125000  -0.5000000), wk =   0.0117188
        k(   62) = (   0.0000000   0.3125000  -0.4375000), wk =   0.0117188
        k(   63) = (   0.0000000   0.3125000  -0.3750000), wk =   0.0117188
        k(   64) = (   0.0000000   0.3125000  -0.3125000), wk =   0.0058594
        k(   65) = (   0.0000000   0.3750000   0.3750000), wk =   0.0029297
        k(   66) = (   0.0000000   0.3750000   0.4375000), wk =   0.0117188
        k(   67) = (   0.0000000   0.3750000  -0.5000000), wk =   0.0117188
        k(   68) = (   0.0000000   0.3750000  -0.4375000), wk =   0.0117188
        k(   69) = (   0.0000000   0.3750000  -0.3750000), wk =   0.0058594
        k(   70) = (   0.0000000   0.4375000   0.4375000), wk =   0.0029297
        k(   71) = (   0.0000000   0.4375000  -0.5000000), wk =   0.0117188
        k(   72) = (   0.0000000   0.4375000  -0.4375000), wk =   0.0058594
        k(   73) = (   0.0000000  -0.5000000  -0.5000000), wk =   0.0014648
        k(   74) = (   0.0625000   0.1250000   0.1875000), wk =   0.0117188
        k(   75) = (   0.0625000   0.1250000   0.2500000), wk =   0.0234375
        k(   76) = (   0.0625000   0.1250000   0.3125000), wk =   0.0234375
        k(   77) = (   0.0625000   0.1250000   0.3750000), wk =   0.0234375
        k(   78) = (   0.0625000   0.1250000   0.4375000), wk =   0.0234375
        k(   79) = (   0.0625000   0.1250000  -0.5000000), wk =   0.0234375
        k(   80) = (   0.0625000   0.1250000  -0.4375000), wk =   0.0117188
        k(   81) = (   0.0625000   0.1875000   0.2500000), wk =   0.0117188
        k(   82) = (   0.0625000   0.1875000   0.3125000), wk =   0.0234375
        k(   83) = (   0.0625000   0.1875000   0.3750000), wk =   0.0234375
        k(   84) = (   0.0625000   0.1875000   0.4375000), wk =   0.0234375
        k(   85) = (   0.0625000   0.1875000  -0.5000000), wk =   0.0234375
        k(   86) = (   0.0625000   0.1875000  -0.4375000), wk =   0.0234375
        k(   87) = (   0.0625000   0.1875000  -0.3750000), wk =   0.0234375
        k(   88) = (   0.0625000   0.1875000  -0.3125000), wk =   0.0234375
        k(   89) = (   0.0625000   0.1875000  -0.2500000), wk =   0.0234375
        k(   90) = (   0.0625000   0.1875000  -0.1875000), wk =   0.0234375
        k(   91) = (   0.0625000   0.1875000  -0.1250000), wk =   0.0117188
        k(   92) = (   0.0625000   0.2500000   0.3125000), wk =   0.0117188
        k(   93) = (   0.0625000   0.2500000   0.3750000), wk =   0.0234375
        k(   94) = (   0.0625000   0.2500000   0.4375000), wk =   0.0234375
        k(   95) = (   0.0625000   0.2500000  -0.5000000), wk =   0.0234375
        k(   96) = (   0.0625000   0.2500000  -0.4375000), wk =   0.0234375
        k(   97) = (   0.0625000   0.2500000  -0.3750000), wk =   0.0234375
        k(   98) = (   0.0625000   0.2500000  -0.3125000), wk =   0.0234375
        k(   99) = (   0.0625000   0.2500000  -0.2500000), wk =   0.0234375
        k(  100) = (   0.0625000   0.2500000  -0.1875000), wk =   0.0117188
        k(  101) = (   0.0625000   0.3125000   0.3750000), wk =   0.0117188
        k(  102) = (   0.0625000   0.3125000   0.4375000), wk =   0.0234375
        k(  103) = (   0.0625000   0.3125000  -0.5000000), wk =   0.0234375
        k(  104) = (   0.0625000   0.3125000  -0.4375000), wk =   0.0234375
        k(  105) = (   0.0625000   0.3125000  -0.3750000), wk =   0.0234375
        k(  106) = (   0.0625000   0.3125000  -0.3125000), wk =   0.0234375
        k(  107) = (   0.0625000   0.3125000  -0.2500000), wk =   0.0117188
        k(  108) = (   0.0625000   0.3750000   0.4375000), wk =   0.0117188
        k(  109) = (   0.0625000   0.3750000  -0.5000000), wk =   0.0234375
        k(  110) = (   0.0625000   0.3750000  -0.4375000), wk =   0.0234375
        k(  111) = (   0.0625000   0.3750000  -0.3750000), wk =   0.0234375
        k(  112) = (   0.0625000   0.3750000  -0.3125000), wk =   0.0117188
        k(  113) = (   0.0625000   0.4375000  -0.5000000), wk =   0.0117188
        k(  114) = (   0.0625000   0.4375000  -0.4375000), wk =   0.0234375
        k(  115) = (   0.0625000   0.4375000  -0.3750000), wk =   0.0117188
        k(  116) = (   0.0625000  -0.5000000  -0.4375000), wk =   0.0058594
        k(  117) = (   0.1250000   0.2500000   0.3750000), wk =   0.0117188
        k(  118) = (   0.1250000   0.2500000   0.4375000), wk =   0.0234375
        k(  119) = (   0.1250000   0.2500000  -0.5000000), wk =   0.0234375
        k(  120) = (   0.1250000   0.2500000  -0.4375000), wk =   0.0234375
        k(  121) = (   0.1250000   0.2500000  -0.3750000), wk =   0.0117188
        k(  122) = (   0.1250000   0.3125000   0.4375000), wk =   0.0117188
        k(  123) = (   0.1250000   0.3125000  -0.5000000), wk =   0.0234375
        k(  124) = (   0.1250000   0.3125000  -0.4375000), wk =   0.0234375
        k(  125) = (   0.1250000   0.3125000  -0.3750000), wk =   0.0234375
        k(  126) = (   0.1250000   0.3125000  -0.3125000), wk =   0.0234375
        k(  127) = (   0.1250000   0.3125000  -0.2500000), wk =   0.0234375
        k(  128) = (   0.1250000   0.3125000  -0.1875000), wk =   0.0117188
        k(  129) = (   0.1250000   0.3750000  -0.5000000), wk =   0.0117188
        k(  130) = (   0.1250000   0.3750000  -0.4375000), wk =   0.0234375
        k(  131) = (   0.1250000   0.3750000  -0.3750000), wk =   0.0234375
        k(  132) = (   0.1250000   0.3750000  -0.3125000), wk =   0.0234375
        k(  133) = (   0.1250000   0.3750000  -0.2500000), wk =   0.0117188
        k(  134) = (   0.1250000   0.4375000  -0.4375000), wk =   0.0117188
        k(  135) = (   0.1250000   0.4375000  -0.3750000), wk =   0.0234375
        k(  136) = (   0.1250000   0.4375000  -0.3125000), wk =   0.0117188
        k(  137) = (   0.1250000  -0.5000000  -0.3750000), wk =   0.0058594
        k(  138) = (   0.1875000   0.3750000  -0.4375000), wk =   0.0117188
        k(  139) = (   0.1875000   0.3750000  -0.3750000), wk =   0.0234375
        k(  140) = (   0.1875000   0.3750000  -0.3125000), wk =   0.0117188
        k(  141) = (   0.1875000   0.4375000  -0.3750000), wk =   0.0117188
        k(  142) = (   0.1875000   0.4375000  -0.3125000), wk =   0.0234375
        k(  143) = (   0.1875000   0.4375000  -0.2500000), wk =   0.0117188
        k(  144) = (   0.1875000  -0.5000000  -0.3125000), wk =   0.0058594
        k(  145) = (   0.2500000  -0.5000000  -0.2500000), wk =   0.0029297

     Dense  grid:     2085 G-vectors     FFT dimensions: (  18,  18,  18)

     Largest allocated arrays     est. size (Mb)     dimensions
        Kohn-Sham Wavefunctions         0.07 Mb     (     273,   16)
        NL pseudopotentials             0.03 Mb     (     273,    8)
        Each V/rho on FFT grid          0.09 Mb     (    5832)
        Each G-vector array             0.02 Mb     (    2085)
        G-vector shells                 0.00 Mb     (      54)
     Largest temporary arrays     est. size (Mb)     dimensions
        Auxiliary wavefunctions         0.27 Mb     (     273,   64)
        Each subspace H/S matrix        0.06 Mb     (      64,   64)
        Each <psi_i|beta_j> matrix      0.00 Mb     (       8,   16)

     The potential is recalculated from file :
     ./Si_nscf_yambo_kx16.save/charge-density.dat

     Starting wfc are    8 randomized atomic wfcs +    8 random wfc

     Band Structure Calculation
     Davidson diagonalization with overlap

     Computing kpt #:     1
     total cpu time spent up to now is        0.4 secs

     Computing kpt #:     2
     total cpu time spent up to now is        0.7 secs

     Computing kpt #:     3
     total cpu time spent up to now is        0.9 secs

     Computing kpt #:     4
     total cpu time spent up to now is        1.1 secs

     Computing kpt #:     5
     total cpu time spent up to now is        1.4 secs

     Computing kpt #:     6
     total cpu time spent up to now is        1.6 secs

     Computing kpt #:     7
     total cpu time spent up to now is        1.8 secs

     Computing kpt #:     8
     total cpu time spent up to now is        2.0 secs

     Computing kpt #:     9
     total cpu time spent up to now is        2.2 secs

     Computing kpt #:    10
     total cpu time spent up to now is        2.4 secs

     Computing kpt #:    11
     total cpu time spent up to now is        2.7 secs

     Computing kpt #:    12
     total cpu time spent up to now is        2.9 secs

     Computing kpt #:    13
     total cpu time spent up to now is        3.2 secs

     Computing kpt #:    14
     total cpu time spent up to now is        3.4 secs

     Computing kpt #:    15
     total cpu time spent up to now is        3.6 secs

     Computing kpt #:    16
     total cpu time spent up to now is        3.8 secs

     Computing kpt #:    17
     total cpu time spent up to now is        4.1 secs

     Computing kpt #:    18
     total cpu time spent up to now is        4.3 secs

     Computing kpt #:    19
     total cpu time spent up to now is        4.5 secs

     Computing kpt #:    20
     total cpu time spent up to now is        4.8 secs

     Computing kpt #:    21
     total cpu time spent up to now is        5.0 secs

     Computing kpt #:    22
     total cpu time spent up to now is        5.2 secs

     Computing kpt #:    23
     total cpu time spent up to now is        5.4 secs

     Computing kpt #:    24
     total cpu time spent up to now is        5.6 secs

     Computing kpt #:    25
     total cpu time spent up to now is        5.8 secs

     Computing kpt #:    26
     total cpu time spent up to now is        6.1 secs

     Computing kpt #:    27
     total cpu time spent up to now is        6.3 secs

     Computing kpt #:    28
     total cpu time spent up to now is        6.5 secs

     Computing kpt #:    29
     total cpu time spent up to now is        6.7 secs

     Computing kpt #:    30
     total cpu time spent up to now is        7.0 secs

     Computing kpt #:    31
     total cpu time spent up to now is        7.2 secs

     Computing kpt #:    32
     total cpu time spent up to now is        7.5 secs

     Computing kpt #:    33
     total cpu time spent up to now is        7.7 secs

     Computing kpt #:    34
     total cpu time spent up to now is        7.9 secs

     Computing kpt #:    35
     total cpu time spent up to now is        8.1 secs

     Computing kpt #:    36
     total cpu time spent up to now is        8.3 secs

     Computing kpt #:    37
     total cpu time spent up to now is        8.5 secs

     Computing kpt #:    38
     total cpu time spent up to now is        8.8 secs

     Computing kpt #:    39
     total cpu time spent up to now is        9.0 secs

     Computing kpt #:    40
     total cpu time spent up to now is        9.2 secs

     Computing kpt #:    41
     total cpu time spent up to now is        9.4 secs

     Computing kpt #:    42
     total cpu time spent up to now is        9.6 secs

     Computing kpt #:    43
     total cpu time spent up to now is        9.9 secs

     Computing kpt #:    44
     total cpu time spent up to now is       10.1 secs

     Computing kpt #:    45
     total cpu time spent up to now is       10.3 secs

     Computing kpt #:    46
     total cpu time spent up to now is       10.6 secs

     Computing kpt #:    47
     total cpu time spent up to now is       10.8 secs

     Computing kpt #:    48
     total cpu time spent up to now is       11.0 secs

     Computing kpt #:    49
     total cpu time spent up to now is       11.2 secs

     Computing kpt #:    50
     total cpu time spent up to now is       11.4 secs

     Computing kpt #:    51
     total cpu time spent up to now is       11.6 secs

     Computing kpt #:    52
     total cpu time spent up to now is       11.9 secs

     Computing kpt #:    53
     total cpu time spent up to now is       12.1 secs

     Computing kpt #:    54
     total cpu time spent up to now is       12.4 secs

     Computing kpt #:    55
     total cpu time spent up to now is       12.6 secs

     Computing kpt #:    56
     total cpu time spent up to now is       12.8 secs

     Computing kpt #:    57
     total cpu time spent up to now is       13.1 secs

     Computing kpt #:    58
     total cpu time spent up to now is       13.3 secs

     Computing kpt #:    59
     total cpu time spent up to now is       13.5 secs

     Computing kpt #:    60
     total cpu time spent up to now is       13.8 secs

     Computing kpt #:    61
     total cpu time spent up to now is       14.0 secs

     Computing kpt #:    62
     total cpu time spent up to now is       14.3 secs

     Computing kpt #:    63
     total cpu time spent up to now is       14.5 secs

     Computing kpt #:    64
     total cpu time spent up to now is       14.7 secs

     Computing kpt #:    65
     total cpu time spent up to now is       14.9 secs

     Computing kpt #:    66
     total cpu time spent up to now is       15.2 secs

     Computing kpt #:    67
     total cpu time spent up to now is       15.5 secs

     Computing kpt #:    68
     total cpu time spent up to now is       15.7 secs

     Computing kpt #:    69
     total cpu time spent up to now is       15.9 secs

     Computing kpt #:    70
     total cpu time spent up to now is       16.1 secs

     Computing kpt #:    71
     total cpu time spent up to now is       16.4 secs

     Computing kpt #:    72
     total cpu time spent up to now is       16.6 secs

     Computing kpt #:    73
     total cpu time spent up to now is       16.8 secs

     Computing kpt #:    74
     total cpu time spent up to now is       17.1 secs

     Computing kpt #:    75
     total cpu time spent up to now is       17.3 secs

     Computing kpt #:    76
     total cpu time spent up to now is       17.5 secs

     Computing kpt #:    77
     total cpu time spent up to now is       17.7 secs

     Computing kpt #:    78
     total cpu time spent up to now is       17.9 secs

     Computing kpt #:    79
     total cpu time spent up to now is       18.2 secs

     Computing kpt #:    80
     total cpu time spent up to now is       18.4 secs

     Computing kpt #:    81
     total cpu time spent up to now is       18.6 secs

     Computing kpt #:    82
     total cpu time spent up to now is       18.8 secs

     Computing kpt #:    83
     total cpu time spent up to now is       19.1 secs

     Computing kpt #:    84
     total cpu time spent up to now is       19.3 secs

     Computing kpt #:    85
     total cpu time spent up to now is       19.5 secs

     Computing kpt #:    86
     total cpu time spent up to now is       19.7 secs

     Computing kpt #:    87
     total cpu time spent up to now is       20.0 secs

     Computing kpt #:    88
     total cpu time spent up to now is       20.2 secs

     Computing kpt #:    89
     total cpu time spent up to now is       20.4 secs

     Computing kpt #:    90
     total cpu time spent up to now is       20.7 secs

     Computing kpt #:    91
     total cpu time spent up to now is       20.9 secs

     Computing kpt #:    92
     total cpu time spent up to now is       21.1 secs

     Computing kpt #:    93
     total cpu time spent up to now is       21.3 secs

     Computing kpt #:    94
     total cpu time spent up to now is       21.5 secs

     Computing kpt #:    95
     total cpu time spent up to now is       21.8 secs

     Computing kpt #:    96
     total cpu time spent up to now is       22.0 secs

     Computing kpt #:    97
     total cpu time spent up to now is       22.3 secs

     Computing kpt #:    98
     total cpu time spent up to now is       22.5 secs

     Computing kpt #:    99
     total cpu time spent up to now is       22.7 secs

     Computing kpt #:   100
     total cpu time spent up to now is       23.0 secs

     Computing kpt #:   101
     total cpu time spent up to now is       23.2 secs

     Computing kpt #:   102
     total cpu time spent up to now is       23.4 secs

     Computing kpt #:   103
     total cpu time spent up to now is       23.7 secs

     Computing kpt #:   104
     total cpu time spent up to now is       23.9 secs

     Computing kpt #:   105
     total cpu time spent up to now is       24.1 secs

     Computing kpt #:   106
     total cpu time spent up to now is       24.4 secs

     Computing kpt #:   107
     total cpu time spent up to now is       24.6 secs

     Computing kpt #:   108
     total cpu time spent up to now is       24.8 secs

     Computing kpt #:   109
     total cpu time spent up to now is       25.0 secs

     Computing kpt #:   110
     total cpu time spent up to now is       25.3 secs

     Computing kpt #:   111
     total cpu time spent up to now is       25.5 secs

     Computing kpt #:   112
     total cpu time spent up to now is       25.8 secs

     Computing kpt #:   113
     total cpu time spent up to now is       26.0 secs

     Computing kpt #:   114
     total cpu time spent up to now is       26.3 secs

     Computing kpt #:   115
     total cpu time spent up to now is       26.5 secs

     Computing kpt #:   116
     total cpu time spent up to now is       26.7 secs

     Computing kpt #:   117
     total cpu time spent up to now is       26.9 secs

     Computing kpt #:   118
     total cpu time spent up to now is       27.2 secs

     Computing kpt #:   119
     total cpu time spent up to now is       27.4 secs

     Computing kpt #:   120
     total cpu time spent up to now is       27.7 secs

     Computing kpt #:   121
     total cpu time spent up to now is       27.9 secs

     Computing kpt #:   122
     total cpu time spent up to now is       28.1 secs

     Computing kpt #:   123
     total cpu time spent up to now is       28.4 secs

     Computing kpt #:   124
     total cpu time spent up to now is       28.6 secs

     Computing kpt #:   125
     total cpu time spent up to now is       28.8 secs

     Computing kpt #:   126
     total cpu time spent up to now is       29.1 secs

     Computing kpt #:   127
     total cpu time spent up to now is       29.3 secs

     Computing kpt #:   128
     total cpu time spent up to now is       29.5 secs

     Computing kpt #:   129
     total cpu time spent up to now is       29.8 secs

     Computing kpt #:   130
     total cpu time spent up to now is       30.0 secs

     Computing kpt #:   131
     total cpu time spent up to now is       30.2 secs

     Computing kpt #:   132
     total cpu time spent up to now is       30.5 secs

     Computing kpt #:   133
     total cpu time spent up to now is       30.7 secs

     Computing kpt #:   134
     total cpu time spent up to now is       30.9 secs

     Computing kpt #:   135
     total cpu time spent up to now is       31.2 secs

     Computing kpt #:   136
     total cpu time spent up to now is       31.4 secs

     Computing kpt #:   137
     total cpu time spent up to now is       31.6 secs

     Computing kpt #:   138
     total cpu time spent up to now is       31.8 secs

     Computing kpt #:   139
     total cpu time spent up to now is       32.1 secs

     Computing kpt #:   140
     total cpu time spent up to now is       32.4 secs

     Computing kpt #:   141
     total cpu time spent up to now is       32.6 secs

     Computing kpt #:   142
     total cpu time spent up to now is       32.9 secs

     Computing kpt #:   143
     total cpu time spent up to now is       33.1 secs

     Computing kpt #:   144
     total cpu time spent up to now is       33.3 secs

     Computing kpt #:   145
     total cpu time spent up to now is       33.6 secs

     ethr =  1.25E-14,  avg # of iterations = 31.3

     total cpu time spent up to now is       33.6 secs

     End of band structure calculation

          k = 0.0000 0.0000 0.0000 (   259 PWs)   bands (ev):

    -5.7589   6.3137   6.3137   6.3137   8.8902   8.8902   8.8902   9.8462
    14.1053  14.2317  14.2317  17.6014  17.6014  17.6014  21.5063  29.7789

     occupation numbers 
     1.0000   1.0000   1.0000   1.0000   0.0000   0.0000   0.0000   0.0000
     0.0000   0.0000   0.0000   0.0000   0.0000   0.0000   0.0000   0.0000

          k =-0.0625 0.0625-0.0625 (   265 PWs)   bands (ev):

    -5.7140   5.7832   6.2249   6.2249   8.9640   9.0166   9.0166  10.2016
    14.0482  14.0482  14.3345  17.3817  17.9527  17.9527  21.8854  29.1073

     occupation numbers 
     1.0000   1.0000   1.0000   1.0000   0.0000   0.0000   0.0000   0.0000
     0.0000   0.0000   0.0000   0.0000   0.0000   0.0000   0.0000   0.0000

          k =-0.1250 0.1250-0.1250 (   271 PWs)   bands (ev):

    -5.5667   4.7049   6.0116   6.0116   8.8575   9.3232   9.3232  11.1301
    13.7022  13.7022  14.9173  16.9871  18.8249  18.8249  22.8163  27.6848

     occupation numbers 
     1.0000   1.0000   1.0000   1.0000   0.0000   0.0000   0.0000   0.0000
     0.0000   0.0000   0.0000   0.0000   0.0000   0.0000   0.0000   0.0000

          k =-0.1875 0.1875-0.1875 (   271 PWs)   bands (ev):

    -5.3117   3.5148   5.7617   5.7617   8.6395   9.6533   9.6533  12.2181
    13.4972  13.4972  15.3484  17.0793  19.9679  19.9679  23.9599  25.9749

     occupation numbers 
     1.0000   1.0000   1.0000   1.0000   0.0000   0.0000   0.0000   0.0000
     0.0000   0.0000   0.0000   0.0000   0.0000   0.0000   0.0000   0.0000

          k =-0.2500 0.2500-0.2500 (   268 PWs)   bands (ev):

    -4.9570   2.3418   5.5274   5.5274   8.3966   9.8512   9.8512  13.2760
    13.6389  13.6389  15.2113  18.1240  21.1527  21.1527  24.3979  24.4130

     occupation numbers 
     1.0000   1.0000   1.0000   1.0000   0.0000   0.0000   0.0000   0.0000
     0.0000   0.0000   0.0000   0.0000   0.0000   0.0000   0.0000   0.0000

          k =-0.3125 0.3125-0.3125 (   256 PWs)   bands (ev):

    -4.5198   1.2493   5.3401   5.3401   8.2029   9.8735   9.8735  14.0318
    14.1987  14.1987  15.2243  19.4999  21.5259  21.5259  23.5001  23.8966

     occupation numbers 
     1.0000   1.0000   1.0000   1.0000   0.0000   0.0000   0.0000   0.0000
     0.0000   0.0000   0.0000   0.0000   0.0000   0.0000   0.0000   0.0000

          k =-0.3750 0.3750-0.3750 (   256 PWs)   bands (ev):

    -4.0361   0.2826   5.1979   5.1979   8.0501   9.7938   9.7938  14.0873
    15.0659  15.0659  16.0012  20.3302  20.3302  20.3949  23.0748  25.1027

     occupation numbers 
     1.0000   1.0000   1.0000   1.0000   0.0000   0.0000   0.0000   0.0000
     0.0000   0.0000   0.0000   0.0000   0.0000   0.0000   0.0000   0.0000

          k =-0.4375 0.4375-0.4375 (   266 PWs)   bands (ev):

    -3.5823  -0.4680   5.1108   5.1108   7.9545   9.7008   9.7008  13.9647
    16.1435  16.1435  17.0217  18.9016  18.9016  19.9112  24.2290  26.7010

     occupation numbers 
     1.0000   1.0000   1.0000   1.0000   0.0000   0.0000   0.0000   0.0000
     0.0000   0.0000   0.0000   0.0000   0.0000   0.0000   0.0000   0.0000

          k = 0.5000-0.5000 0.5000 (   266 PWs)   bands (ev):

    -3.3699  -0.7790   5.0819   5.0819   7.9229   9.6678   9.6678  13.9128
    17.1080  17.1080  17.6536  17.8167  17.8167  19.3373  25.8002  26.4047

     occupation numbers 
     1.0000   1.0000   1.0000   1.0000   0.0000   0.0000   0.0000   0.0000
     0.0000   0.0000   0.0000   0.0000   0.0000   0.0000   0.0000   0.0000

          k = 0.0000 0.1250 0.0000 (   263 PWs)   bands (ev):

    -5.6945   5.9085   6.0391   6.0391   8.7153   9.2485   9.2485  10.2280
    13.7045  14.3087  14.4108  17.7220  17.7220  17.9500  22.0345  28.8099

     occupation numbers 
     1.0000   1.0000   1.0000   1.0000   0.0000   0.0000   0.0000   0.0000
     0.0000   0.0000   0.0000   0.0000   0.0000   0.0000   0.0000   0.0000

          k =-0.0625 0.1875-0.0625 (   267 PWs)   bands (ev):

    -5.5783   5.0361   5.7738   5.9547   8.7101   9.3759   9.6237  10.8783
    13.2841  14.2298  14.8881  17.3969  18.1805  18.7763  22.8140  27.5607

     occupation numbers 
     1.0000   1.0000   1.0000   1.0000   0.0000   0.0000   0.0000   0.0000
     0.0000   0.0000   0.0000   0.0000   0.0000   0.0000   0.0000   0.0000

          k =-0.1250 0.2500-0.1250 (   268 PWs)   bands (ev):

    -5.3583   3.8977   5.5045   5.7556   8.8257   9.3690  10.0055  11.6878
    13.1696  14.0737  15.4925  17.1573  19.1215  19.9403  23.9052  25.8746

     occupation numbers 
     1.0000   1.0000   1.0000   1.0000   0.0000   0.0000   0.0000   0.0000
     0.0000   0.0000   0.0000   0.0000   0.0000   0.0000   0.0000   0.0000

          k =-0.1875 0.3125-0.1875 (   267 PWs)   bands (ev):

    -5.0403   2.7312   5.2729   5.4973   8.7434   9.5226  10.2491  12.1566
    13.7427  14.1572  15.5601  17.8093  20.2609  21.2138  24.2134  24.4750

     occupation numbers 
     1.0000   1.0000   1.0000   1.0000   0.0000   0.0000   0.0000   0.0000
     0.0000   0.0000   0.0000   0.0000   0.0000   0.0000   0.0000   0.0000

          k =-0.2500 0.3750-0.2500 (   261 PWs)   bands (ev):

    -4.6277   1.6167   5.1025   5.2416   8.5708   9.6286  10.2792  12.6220
    14.6211  14.6212  15.3857  19.0732  21.0249  22.0338  23.1867  23.6773

     occupation numbers 
     1.0000   1.0000   1.0000   1.0000   0.0000   0.0000   0.0000   0.0000
     0.0000   0.0000   0.0000   0.0000   0.0000   0.0000   0.0000   0.0000

          k =-0.3125 0.4375-0.3125 (   260 PWs)   bands (ev):

    -4.1548   0.6065   4.9930   5.0230   8.4164   9.6197  10.1620  13.3156
    14.8341  15.4313  16.0419  20.0386  20.1281  21.4824  23.2869  24.0325

     occupation numbers 
     1.0000   1.0000   1.0000   1.0000   0.0000   0.0000   0.0000   0.0000
     0.0000   0.0000   0.0000   0.0000   0.0000   0.0000   0.0000   0.0000

          k =-0.3750 0.5000-0.3750 (   261 PWs)   bands (ev):

    -3.6746  -0.2255   4.8456   4.9517   8.3081   9.5827  10.0067  13.9441
    15.0284  16.4647  17.1180  18.7233  19.3385  20.9562  23.7174  25.5969

     occupation numbers 
     1.0000   1.0000   1.0000   1.0000   0.0000   0.0000   0.0000   0.0000
     0.0000   0.0000   0.0000   0.0000   0.0000   0.0000   0.0000   0.0000

          k = 0.5625-0.4375 0.5625 (   258 PWs)   bands (ev):

    -3.3479  -0.7121   4.7237   4.9761   8.2590   9.5910   9.8862  14.1115
    15.8551  17.0749  17.7737  17.9255  18.5902  19.9469  25.3653  26.6982

     occupation numbers 
     1.0000   1.0000   1.0000   1.0000   0.0000   0.0000   0.0000   0.0000
     0.0000   0.0000   0.0000   0.0000   0.0000   0.0000   0.0000   0.0000

          k = 0.5000-0.3750 0.5000 (   260 PWs)   bands (ev):

    -3.4237  -0.6051   4.6619   5.0621   8.2687   9.6704   9.8160  14.1424
    15.9035  16.2360  17.6668  18.2761  19.1488  19.9776  24.7170  26.6714

     occupation numbers 
     1.0000   1.0000   1.0000   1.0000   0.0000   0.0000   0.0000   0.0000
     0.0000   0.0000   0.0000   0.0000   0.0000   0.0000   0.0000   0.0000

          k = 0.4375-0.3125 0.4375 (   260 PWs)   bands (ev):

    -3.8294   0.0260   4.6660   5.2054   8.3394   9.8053   9.8153  14.0928
    14.7670  15.5310  17.1495  18.8174  20.5704  20.7467  23.2686  24.9784

     occupation numbers 
     1.0000   1.0000   1.0000   1.0000   0.0000   0.0000   0.0000   0.0000
     0.0000   0.0000   0.0000   0.0000   0.0000   0.0000   0.0000   0.0000

          k = 0.3750-0.2500 0.3750 (   263 PWs)   bands (ev):

    -4.3190   0.9283   4.7376   5.3966   8.4668   9.8144   9.9721  13.6749
    13.8358  15.2280  16.0313  19.6528  20.6708  21.9084  23.0749  23.7308

     occupation numbers 
     1.0000   1.0000   1.0000   1.0000   0.0000   0.0000   0.0000   0.0000
     0.0000   0.0000   0.0000   0.0000   0.0000   0.0000   0.0000   0.0000

          k = 0.3125-0.1875 0.3125 (   264 PWs)   bands (ev):

    -4.7747   1.9802   4.8806   5.6240   8.6490   9.7624  10.0583  13.0067
    13.2139  14.9953  15.4401  18.5940  20.8028  22.1405  22.9537  24.4622

     occupation numbers 
     1.0000   1.0000   1.0000   1.0000   0.0000   0.0000   0.0000   0.0000
     0.0000   0.0000   0.0000   0.0000   0.0000   0.0000   0.0000   0.0000

          k = 0.2500-0.1250 0.2500 (   268 PWs)   bands (ev):

    -5.1563   3.1154   5.0937   5.8734   8.8641   9.5641   9.9390  12.3411
    12.9893  14.2569  15.6374  17.4706  19.7243  21.0298  24.2547  24.5858

     occupation numbers 
     1.0000   1.0000   1.0000   1.0000   0.0000   0.0000   0.0000   0.0000
     0.0000   0.0000   0.0000   0.0000   0.0000   0.0000   0.0000   0.0000

          k = 0.1875-0.0625 0.1875 (   269 PWs)   bands (ev):

    -5.4438   4.2677   5.3760   6.1044   9.0685   9.2646   9.5883  11.5720
    13.1624  13.9969  15.3169  17.1866  18.5912  19.8037  23.4669  25.9905

     occupation numbers 
     1.0000   1.0000   1.0000   1.0000   0.0000   0.0000   0.0000   0.0000
     0.0000   0.0000   0.0000   0.0000   0.0000   0.0000   0.0000   0.0000

          k = 0.1250 0.0000 0.1250 (   267 PWs)   bands (ev):

    -5.6304   5.2711   5.7630   6.2474   9.0298   9.1343   9.2225  10.7240
    13.5797  14.0763  14.6896  17.4405  17.8524  18.7276  22.4556  27.6893

     occupation numbers 
     1.0000   1.0000   1.0000   1.0000   0.0000   0.0000   0.0000   0.0000
     0.0000   0.0000   0.0000   0.0000   0.0000   0.0000   0.0000   0.0000

          k = 0.0000 0.2500 0.0000 (   267 PWs)   bands (ev):

    -5.4913   5.0119   5.4768   5.4768   8.3048  10.0609  10.0609  10.8143
    12.9328  14.5397  15.2223  18.0865  18.0865  18.5708  23.4588  27.1433

     occupation numbers 
     1.0000   1.0000   1.0000   1.0000   0.0000   0.0000   0.0000   0.0000
     0.0000   0.0000   0.0000   0.0000   0.0000   0.0000   0.0000   0.0000

          k =-0.0625 0.3125-0.0625 (   267 PWs)   bands (ev):

    -5.3024   4.1557   5.1899   5.2959   8.2619  10.1746  10.5146  11.0589
    13.0948  14.5926  15.8266  17.8255  18.6333  19.5627  24.4625  25.7979

     occupation numbers 
     1.0000   1.0000   1.0000   1.0000   0.0000   0.0000   0.0000   0.0000
     0.0000   0.0000   0.0000   0.0000   0.0000   0.0000   0.0000   0.0000

          k =-0.1250 0.3750-0.1250 (   263 PWs)   bands (ev):

    -5.0145   3.0793   4.9535   5.0467   8.4484  10.1047  10.8432  11.0940
    13.9275  14.6884  16.2577  17.8945  19.5874  20.8720  24.1425  24.5679

     occupation numbers 
     1.0000   1.0000   1.0000   1.0000   0.0000   0.0000   0.0000   0.0000
     0.0000   0.0000   0.0000   0.0000   0.0000   0.0000   0.0000   0.0000

          k =-0.1875 0.4375-0.1875 (   265 PWs)   bands (ev):

    -4.6347   1.9923   4.7401   4.7792   8.5749  10.0828  10.9320  11.2351
    15.0063  15.0917  16.1036  18.8338  20.4660  21.9370  22.8251  23.5832

     occupation numbers 
     1.0000   1.0000   1.0000   1.0000   0.0000   0.0000   0.0000   0.0000
     0.0000   0.0000   0.0000   0.0000   0.0000   0.0000   0.0000   0.0000

          k =-0.2500 0.5000-0.2500 (   267 PWs)   bands (ev):

    -4.1821   0.9702   4.4421   4.6784   8.5663  10.0087  10.8266  11.8142
    15.6570  15.8277  16.3020  19.7856  19.9577  21.6904  23.1537  24.1241

     occupation numbers 
     1.0000   1.0000   1.0000   1.0000   0.0000   0.0000   0.0000   0.0000
     0.0000   0.0000   0.0000   0.0000   0.0000   0.0000   0.0000   0.0000

          k =-0.3125 0.5625-0.3125 (   260 PWs)   bands (ev):

    -3.6910   0.0865   4.1867   4.6570   8.5298   9.9147  10.6464  12.7145
    15.4580  16.8260  17.4073  18.6077  19.3151  22.1658  23.6975  24.6021

     occupation numbers 
     1.0000   1.0000   1.0000   1.0000   0.0000   0.0000   0.0000   0.0000
     0.0000   0.0000   0.0000   0.0000   0.0000   0.0000   0.0000   0.0000

          k = 0.6250-0.3750 0.6250 (   259 PWs)   bands (ev):

    -3.2850  -0.5355   3.9893   4.7065   8.5323   9.8573  10.4588  13.7303
    15.3023  17.0199  17.9237  18.1714  18.9257  21.5163  24.7457  26.2394

     occupation numbers 
     1.0000   1.0000   1.0000   1.0000   0.0000   0.0000   0.0000   0.0000
     0.0000   0.0000   0.0000   0.0000   0.0000   0.0000   0.0000   0.0000

          k = 0.5625-0.3125 0.5625 (   256 PWs)   bands (ev):

    -3.2108  -0.6366   3.8561   4.8285   8.5965   9.8704  10.3141  14.5030
    15.2843  15.7439  17.3191  19.4477  19.8305  20.4481  24.8831  26.4816

     occupation numbers 
     1.0000   1.0000   1.0000   1.0000   0.0000   0.0000   0.0000   0.0000
     0.0000   0.0000   0.0000   0.0000   0.0000   0.0000   0.0000   0.0000

          k = 0.5000-0.2500 0.5000 (   254 PWs)   bands (ev):

    -3.5374  -0.1496   3.7988   5.0140   8.7220   9.9574  10.2199  14.2353
    14.5611  15.5652  17.6091  18.9213  20.8583  21.0865  23.3135  25.1605

     occupation numbers 
     1.0000   1.0000   1.0000   1.0000   0.0000   0.0000   0.0000   0.0000
     0.0000   0.0000   0.0000   0.0000   0.0000   0.0000   0.0000   0.0000

          k = 0.4375-0.1875 0.4375 (   256 PWs)   bands (ev):

    -4.0181   0.6692   3.8228   5.2498   8.8912  10.0914  10.1477  13.4363
    13.5785  15.8349  17.7032  18.6059  20.8584  22.2572  22.7615  23.8924

     occupation numbers 
     1.0000   1.0000   1.0000   1.0000   0.0000   0.0000   0.0000   0.0000
     0.0000   0.0000   0.0000   0.0000   0.0000   0.0000   0.0000   0.0000

          k = 0.3750-0.1250 0.3750 (   262 PWs)   bands (ev):

    -4.4937   1.6470   3.9393   5.5168   9.0965  10.0214  10.1912  12.6538
    12.8943  16.1129  16.5501  18.7840  20.4832  21.8451  23.0026  24.5055

     occupation numbers 
     1.0000   1.0000   1.0000   1.0000   0.0000   0.0000   0.0000   0.0000
     0.0000   0.0000   0.0000   0.0000   0.0000   0.0000   0.0000   0.0000

          k = 0.3125-0.0625 0.3125 (   264 PWs)   bands (ev):

    -4.9018   2.6860   4.1788   5.7899   9.3052   9.7725  10.0758  12.1586
    12.6314  15.3940  16.3567  17.8975  19.7217  22.2129  22.6166  25.0698

     occupation numbers 
     1.0000   1.0000   1.0000   1.0000   0.0000   0.0000   0.0000   0.0000
     0.0000   0.0000   0.0000   0.0000   0.0000   0.0000   0.0000   0.0000

          k = 0.2500 0.0000 0.2500 (   273 PWs)   bands (ev):

    -5.2256   3.6309   4.6233   6.0105   9.4283   9.4576   9.6892  11.9272
    12.7570  14.4951  15.9671  17.5236  18.7393  20.9675  24.2213  24.4300

     occupation numbers 
     1.0000   1.0000   1.0000   1.0000   0.0000   0.0000   0.0000   0.0000
     0.0000   0.0000   0.0000   0.0000   0.0000   0.0000   0.0000   0.0000

          k = 0.0000 0.3750 0.0000 (   270 PWs)   bands (ev):

    -5.1476   3.9489   4.8869   4.8869   7.8268  10.4108  11.0634  11.0634
    13.3213  14.9244  16.3554  18.6779  18.6779  19.2630  25.3982  25.4360

     occupation numbers 
     1.0000   1.0000   1.0000   1.0000   0.0000   0.0000   0.0000   0.0000
     0.0000   0.0000   0.0000   0.0000   0.0000   0.0000   0.0000   0.0000

          k =-0.0625 0.4375-0.0625 (   264 PWs)   bands (ev):

    -4.8911   3.1891   4.6110   4.6371   7.8016  10.0423  11.3533  11.5209
    14.0922  15.1419  16.9754  18.5576  19.2745  20.3385  24.1242  24.3932

     occupation numbers 
     1.0000   1.0000   1.0000   1.0000   0.0000   0.0000   0.0000   0.0000
     0.0000   0.0000   0.0000   0.0000   0.0000   0.0000   0.0000   0.0000

          k =-0.1250 0.5000-0.1250 (   262 PWs)   bands (ev):

    -4.5398   2.2493   4.2533   4.4525   8.0068   9.9803  11.2928  11.7384
    15.2191  15.5263  17.1379  18.9529  20.0508  21.5416  22.7193  23.3841

     occupation numbers 
     1.0000   1.0000   1.0000   1.0000   0.0000   0.0000   0.0000   0.0000
     0.0000   0.0000   0.0000   0.0000   0.0000   0.0000   0.0000   0.0000

          k =-0.1875 0.5625-0.1875 (   260 PWs)   bands (ev):

    -4.1049   1.2915   3.8709   4.3456   8.1356  10.3995  11.1341  11.6976
    16.2227  16.4122  16.8857  19.7556  19.8363  21.5646  22.5869  23.9594

     occupation numbers 
     1.0000   1.0000   1.0000   1.0000   0.0000   0.0000   0.0000   0.0000
     0.0000   0.0000   0.0000   0.0000   0.0000   0.0000   0.0000   0.0000

          k =-0.2500 0.6250-0.2500 (   256 PWs)   bands (ev):

    -3.6183   0.4077   3.5235   4.3196   8.1681  10.9578  11.2468  11.5166
    16.4458  17.1961  17.7104  18.5534  19.4120  22.2249  23.8118  24.8599

     occupation numbers 
     1.0000   1.0000   1.0000   1.0000   0.0000   0.0000   0.0000   0.0000
     0.0000   0.0000   0.0000   0.0000   0.0000   0.0000   0.0000   0.0000

          k = 0.6875-0.3125 0.6875 (   255 PWs)   bands (ev):

    -3.1627  -0.2941   3.2384   4.3746   8.2139  10.8439  11.2974  12.3024
    15.9856  17.0104  18.3299  18.4782  19.1348  23.0938  24.3362  25.2984

     occupation numbers 
     1.0000   1.0000   1.0000   1.0000   0.0000   0.0000   0.0000   0.0000
     0.0000   0.0000   0.0000   0.0000   0.0000   0.0000   0.0000   0.0000

          k = 0.6250-0.2500 0.6250 (   256 PWs)   bands (ev):

    -2.9541  -0.5837   3.0347   4.5038   8.3306  10.7697  11.0996  13.4986
    15.2685  15.6712  17.8438  19.7623  20.2937  22.0715  24.7332  25.8013

     occupation numbers 
     1.0000   1.0000   1.0000   1.0000   0.0000   0.0000   0.0000   0.0000
     0.0000   0.0000   0.0000   0.0000   0.0000   0.0000   0.0000   0.0000

          k = 0.5625-0.1875 0.5625 (   256 PWs)   bands (ev):

    -3.1805  -0.2655   2.9194   4.7069   8.5244  10.7525  10.9388  14.2987
    14.4491  14.7500  17.7717  20.7634  21.1629  21.3640  23.0883  25.6798

     occupation numbers 
     1.0000   1.0000   1.0000   1.0000   0.0000   0.0000   0.0000   0.0000
     0.0000   0.0000   0.0000   0.0000   0.0000   0.0000   0.0000   0.0000

          k = 0.5000-0.1250 0.5000 (   257 PWs)   bands (ev):

    -3.6398   0.4434   2.9123   4.9665   8.7862  10.7750  10.7853  13.2894
    13.4344  15.8923  18.0935  19.4499  20.9730  22.5752  22.8385  24.1702

     occupation numbers 
     1.0000   1.0000   1.0000   1.0000   0.0000   0.0000   0.0000   0.0000
     0.0000   0.0000   0.0000   0.0000   0.0000   0.0000   0.0000   0.0000

          k = 0.4375-0.0625 0.4375 (   263 PWs)   bands (ev):

    -4.1271   1.2971   3.0492   5.2602   9.0848  10.5509  10.7534  12.4341
    12.7463  16.7118  18.0540  18.5727  20.0743  22.0054  23.5912  24.3725

     occupation numbers 
     1.0000   1.0000   1.0000   1.0000   0.0000   0.0000   0.0000   0.0000
     0.0000   0.0000   0.0000   0.0000   0.0000   0.0000   0.0000   0.0000

          k = 0.3750 0.0000 0.3750 (   265 PWs)   bands (ev):

    -4.5561   2.1030   3.4345   5.5566   9.3341  10.1709  10.4670  12.0511
    12.5040  16.7055  16.9762  18.1245  20.2931  21.2898  23.2803  25.0093

     occupation numbers 
     1.0000   1.0000   1.0000   1.0000   0.0000   0.0000   0.0000   0.0000
     0.0000   0.0000   0.0000   0.0000   0.0000   0.0000   0.0000   0.0000

          k = 0.0000 0.5000 0.0000 (   258 PWs)   bands (ev):

    -4.6628   2.8270   4.3679   4.3679   7.3936   9.4452  12.1591  12.1591
    14.4917  15.4737  17.6616  19.4497  19.4497  20.0880  23.8846  23.8846

     occupation numbers 
     1.0000   1.0000   1.0000   1.0000   0.0000   0.0000   0.0000   0.0000
     0.0000   0.0000   0.0000   0.0000   0.0000   0.0000   0.0000   0.0000

          k =-0.0625 0.5625-0.0625 (   259 PWs)   bands (ev):

    -4.3458   2.1554   4.0384   4.1646   7.4121   9.1034  12.4459  12.5812
    15.3929  15.8615  18.1584  19.5298  19.9249  21.0755  22.7749  23.1507

     occupation numbers 
     1.0000   1.0000   1.0000   1.0000   0.0000   0.0000   0.0000   0.0000
     0.0000   0.0000   0.0000   0.0000   0.0000   0.0000   0.0000   0.0000

          k =-0.1250 0.6250-0.1250 (   257 PWs)   bands (ev):

    -3.9369   1.3776   3.5642   4.0417   7.6217   9.1919  12.4044  12.6790
    16.5376  16.5987  17.9922  19.7673  20.0953  21.3109  22.3559  23.5219

     occupation numbers 
     1.0000   1.0000   1.0000   1.0000   0.0000   0.0000   0.0000   0.0000
     0.0000   0.0000   0.0000   0.0000   0.0000   0.0000   0.0000   0.0000

          k =-0.1875 0.6875-0.1875 (   257 PWs)   bands (ev):

    -3.4649   0.5879   3.0855   4.0008   7.7276   9.8135  12.2645  12.5426
    17.4022  17.4943  17.9335  18.5509  19.8869  21.9018  23.2425  24.8908

     occupation numbers 
     1.0000   1.0000   1.0000   1.0000   0.0000   0.0000   0.0000   0.0000
     0.0000   0.0000   0.0000   0.0000   0.0000   0.0000   0.0000   0.0000

          k = 0.7500-0.2500 0.7500 (   254 PWs)   bands (ev):

    -2.9840  -0.1067   2.6801   4.0455   7.7948  10.7739  12.1429  12.3230
    16.5917  17.0631  18.7452  19.1170  19.3716  23.2752  24.3576  25.1589

     occupation numbers 
     1.0000   1.0000   1.0000   1.0000   0.0000   0.0000   0.0000   0.0000
     0.0000   0.0000   0.0000   0.0000   0.0000   0.0000   0.0000   0.0000

          k = 0.6875-0.1875 0.6875 (   256 PWs)   bands (ev):

    -2.6603  -0.5248   2.3781   4.1711   7.9172  11.7086  12.0910  12.2672
    15.5283  15.6864  18.9493  20.0495  20.4827  23.8401  24.5223  24.9336

     occupation numbers 
     1.0000   1.0000   1.0000   1.0000   0.0000   0.0000   0.0000   0.0000
     0.0000   0.0000   0.0000   0.0000   0.0000   0.0000   0.0000   0.0000

          k = 0.6250-0.1250 0.6250 (   255 PWs)   bands (ev):

    -2.7663  -0.3795   2.2049   4.3735   8.1328  11.8248  11.8713  13.3486
    14.3948  14.4391  18.9147  21.4507  21.5127  22.5409  22.9196  25.0646

     occupation numbers 
     1.0000   1.0000   1.0000   1.0000   0.0000   0.0000   0.0000   0.0000
     0.0000   0.0000   0.0000   0.0000   0.0000   0.0000   0.0000   0.0000

          k = 0.5625-0.0625 0.5625 (   258 PWs)   bands (ev):

    -3.1936   0.1827   2.1928   4.6387   8.4275  11.6060  11.7731  13.2308
    13.4410  14.7541  19.0490  20.7925  21.1614  22.8325  23.0734  24.6065

     occupation numbers 
     1.0000   1.0000   1.0000   1.0000   0.0000   0.0000   0.0000   0.0000
     0.0000   0.0000   0.0000   0.0000   0.0000   0.0000   0.0000   0.0000

          k = 0.5000 0.0000 0.5000 (   256 PWs)   bands (ev):

    -3.6771   0.8177   2.4387   4.9489   8.7753  11.1612  11.4877  12.5090
    12.8691  16.0398  18.9850  19.7277  19.7921  23.1035  23.7379  23.9342

     occupation numbers 
     1.0000   1.0000   1.0000   1.0000   0.0000   0.0000   0.0000   0.0000
     0.0000   0.0000   0.0000   0.0000   0.0000   0.0000   0.0000   0.0000

          k = 0.0000 0.6250 0.0000 (   258 PWs)   bands (ev):

    -4.0556   1.6951   3.9416   3.9416   7.0611   8.5306  13.3003  13.3003
    15.8067  16.1633  18.9642  20.0367  20.0367  21.1118  22.8482  22.8482

     occupation numbers 
     1.0000   1.0000   1.0000   1.0000   0.0000   0.0000   0.0000   0.0000
     0.0000   0.0000   0.0000   0.0000   0.0000   0.0000   0.0000   0.0000

          k =-0.0625 0.6875-0.0625 (   257 PWs)   bands (ev):

    -3.6756   1.0843   3.6038   3.7984   7.1341   8.3021  13.6069  13.6732
    16.7260  16.7339  18.9810  19.7601  20.4196  21.3725  22.3859  23.2204

     occupation numbers 
     1.0000   1.0000   1.0000   1.0000   0.0000   0.0000   0.0000   0.0000
     0.0000   0.0000   0.0000   0.0000   0.0000   0.0000   0.0000   0.0000

          k =-0.1250 0.7500-0.1250 (   255 PWs)   bands (ev):

    -3.2227   0.4434   3.0610   3.7392   7.3309   8.6025  13.5781  13.6702
    17.6804  17.8619  18.2337  18.6084  20.9390  21.4131  22.6558  24.1006

     occupation numbers 
     1.0000   1.0000   1.0000   1.0000   0.0000   0.0000   0.0000   0.0000
     0.0000   0.0000   0.0000   0.0000   0.0000   0.0000   0.0000   0.0000

          k = 0.8125-0.1875 0.8125 (   256 PWs)   bands (ev):

    -2.7333  -0.1683   2.5144   3.7643   7.4248   9.4311  13.4460  13.4747
    16.9589  17.1777  18.8877  19.2944  20.5801  22.5680  23.0984  25.1796

     occupation numbers 
     1.0000   1.0000   1.0000   1.0000   0.0000   0.0000   0.0000   0.0000
     0.0000   0.0000   0.0000   0.0000   0.0000   0.0000   0.0000   0.0000

          k = 0.7500-0.1250 0.7500 (   257 PWs)   bands (ev):

    -2.3324  -0.6152   2.0785   3.8750   7.5459  10.5330  13.2243  13.3174
    15.7034  15.7923  20.2488  20.3834  20.5578  23.3639  23.7262  24.2240

     occupation numbers 
     1.0000   1.0000   1.0000   1.0000   0.0000   0.0000   0.0000   0.0000
     0.0000   0.0000   0.0000   0.0000   0.0000   0.0000   0.0000   0.0000

          k = 0.6875-0.0625 0.6875 (   263 PWs)   bands (ev):

    -2.3335  -0.6097   1.8209   4.0655   7.7566  11.7477  12.9201  13.2342
    14.4496  14.5669  20.3799  21.5206  21.6421  22.4937  23.4749  24.4381

     occupation numbers 
     1.0000   1.0000   1.0000   1.0000   0.0000   0.0000   0.0000   0.0000
     0.0000   0.0000   0.0000   0.0000   0.0000   0.0000   0.0000   0.0000

          k = 0.6250 0.0000 0.6250 (   260 PWs)   bands (ev):

    -2.7198  -0.2042   1.8236   4.3263   8.0637  12.4108  12.5482  13.4328
    13.5291  13.7423  20.2967  20.8103  22.2818  22.7663  23.3163  23.7739

     occupation numbers 
     1.0000   1.0000   1.0000   1.0000   0.0000   0.0000   0.0000   0.0000
     0.0000   0.0000   0.0000   0.0000   0.0000   0.0000   0.0000   0.0000

          k = 0.0000 0.7500 0.0000 (   254 PWs)   bands (ev):

    -3.3221   0.5751   3.6331   3.6331   6.8654   7.7985  14.4800  14.4800
    17.0216  17.1109  19.5724  19.5724  19.9348  21.8472  22.3776  23.2319

     occupation numbers 
     1.0000   1.0000   1.0000   1.0000   0.0000   0.0000   0.0000   0.0000
     0.0000   0.0000   0.0000   0.0000   0.0000   0.0000   0.0000   0.0000

          k =-0.0625 0.8125-0.0625 (   251 PWs)   bands (ev):

    -2.8873   0.0139   3.3166   3.5508   6.9936   7.7088  14.7993  14.8021
    17.7517  17.9611  18.6027  18.6793  20.6226  21.4871  22.4725  24.0247

     occupation numbers 
     1.0000   1.0000   1.0000   1.0000   0.0000   0.0000   0.0000   0.0000
     0.0000   0.0000   0.0000   0.0000   0.0000   0.0000   0.0000   0.0000

          k = 0.8750-0.1250 0.8750 (   254 PWs)   bands (ev):

    -2.4032  -0.5285   2.7670   3.5547   7.1442   8.2477  14.7137  14.7770
    17.2047  17.3351  18.9151  19.2656  21.3458  21.5832  22.3564  25.1588

     occupation numbers 
     1.0000   1.0000   1.0000   1.0000   0.0000   0.0000   0.0000   0.0000
     0.0000   0.0000   0.0000   0.0000   0.0000   0.0000   0.0000   0.0000

          k = 0.8125-0.0625 0.8125 (   257 PWs)   bands (ev):

    -1.9571  -0.9596   2.2244   3.6459   7.2619   9.2396  14.4328  14.6554
    15.8627  15.9981  20.2974  20.3852  21.7804  21.9134  22.5582  24.0982

     occupation numbers 
     1.0000   1.0000   1.0000   1.0000   0.0000   0.0000   0.0000   0.0000
     0.0000   0.0000   0.0000   0.0000   0.0000   0.0000   0.0000   0.0000

          k = 0.7500 0.0000 0.7500 (   264 PWs)   bands (ev):

    -1.9457  -0.9483   1.8597   3.8176   7.4569  10.4481  13.8959  14.4247
    14.6162  14.9827  21.0848  21.5557  22.0722  22.1410  22.2575  23.5440

     occupation numbers 
     1.0000   1.0000   1.0000   1.0000   0.0000   0.0000   0.0000   0.0000
     0.0000   0.0000   0.0000   0.0000   0.0000   0.0000   0.0000   0.0000

          k = 0.0000 0.8750 0.0000 (   250 PWs)   bands (ev):

    -2.4745  -0.5087   3.4445   3.4445   6.8267   7.2761  15.6704  15.6704
    18.0112  18.3308  18.4409  18.4409  20.0602  20.4301  23.8609  24.6448

     occupation numbers 
     1.0000   1.0000   1.0000   1.0000   0.0000   0.0000   0.0000   0.0000
     0.0000   0.0000   0.0000   0.0000   0.0000   0.0000   0.0000   0.0000

          k = 0.9375-0.0625 0.9375 (   254 PWs)   bands (ev):

    -1.9996  -1.0254   3.1721   3.4249   6.9743   7.3464  15.8999  15.9736
    17.4045  17.4882  18.8954  19.2154  20.1525  20.2192  24.0388  25.4399

     occupation numbers 
     1.0000   1.0000   1.0000   1.0000   0.0000   0.0000   0.0000   0.0000
     0.0000   0.0000   0.0000   0.0000   0.0000   0.0000   0.0000   0.0000

          k = 0.8750 0.0000 0.8750 (   256 PWs)   bands (ev):

    -1.5960  -1.3902   2.6696   3.4930   7.0788   8.1244  15.4960  15.8526
    16.1681  16.4630  20.0389  20.1851  20.2763  20.9738  23.8597  24.1929

     occupation numbers 
     1.0000   1.0000   1.0000   1.0000   0.0000   0.0000   0.0000   0.0000
     0.0000   0.0000   0.0000   0.0000   0.0000   0.0000   0.0000   0.0000

          k = 0.0000-1.0000 0.0000 (   254 PWs)   bands (ev):

    -1.5346  -1.5346   3.3806   3.3806   6.9509   6.9509  16.5388  16.5388
    17.5425  17.5425  19.1484  19.1484  19.3830  19.3830  25.3255  25.3255

     occupation numbers 
     1.0000   1.0000   1.0000   1.0000   0.0000   0.0000   0.0000   0.0000
     0.0000   0.0000   0.0000   0.0000   0.0000   0.0000   0.0000   0.0000

          k =-0.1250 0.2500 0.0000 (   268 PWs)   bands (ev):

    -5.4244   4.4302   5.1980   5.8810   8.6842   9.6572   9.9251  11.3268
    13.0255  14.2923  15.4283  17.5857  18.2533  19.6333  23.6931  25.9630

     occupation numbers 
     1.0000   1.0000   1.0000   1.0000   0.0000   0.0000   0.0000   0.0000
     0.0000   0.0000   0.0000   0.0000   0.0000   0.0000   0.0000   0.0000

          k =-0.1875 0.3125-0.0625 (   268 PWs)   bands (ev):

    -5.1705   3.4479   4.7747   5.7152   8.8643   9.6539  10.3122  11.5701
    13.2128  14.5288  16.0169  17.5639  19.0903  20.8401  24.2535  24.7395

     occupation numbers 
     1.0000   1.0000   1.0000   1.0000   0.0000   0.0000   0.0000   0.0000
     0.0000   0.0000   0.0000   0.0000   0.0000   0.0000   0.0000   0.0000

          k =-0.2500 0.3750-0.1250 (   267 PWs)   bands (ev):

    -4.8184   2.3526   4.5046   5.4710   8.9496   9.6669  10.5390  11.7365
    13.6417  15.2588  16.0336  18.2817  20.2082  22.0362  22.7538  24.6053

     occupation numbers 
     1.0000   1.0000   1.0000   1.0000   0.0000   0.0000   0.0000   0.0000
     0.0000   0.0000   0.0000   0.0000   0.0000   0.0000   0.0000   0.0000

          k =-0.3125 0.4375-0.1875 (   262 PWs)   bands (ev):

    -4.3856   1.2953   4.3224   5.2227   8.8713   9.6693  10.5468  12.2379
    14.2842  15.7696  16.2954  19.2885  20.5283  22.1588  22.6491  24.1703

     occupation numbers 
     1.0000   1.0000   1.0000   1.0000   0.0000   0.0000   0.0000   0.0000
     0.0000   0.0000   0.0000   0.0000   0.0000   0.0000   0.0000   0.0000

          k =-0.3750 0.5000-0.2500 (   258 PWs)   bands (ev):

    -3.8986   0.3477   4.2126   5.0128   8.7695   9.5951  10.4483  13.0431
    14.9537  15.7358  17.4400  18.7211  20.4494  21.7561  23.2814  24.2015

     occupation numbers 
     1.0000   1.0000   1.0000   1.0000   0.0000   0.0000   0.0000   0.0000
     0.0000   0.0000   0.0000   0.0000   0.0000   0.0000   0.0000   0.0000

          k = 0.5625-0.4375 0.6875 (   258 PWs)   bands (ev):

    -3.4449  -0.3892   4.1565   4.8694   8.6961   9.5143  10.3536  13.9349
    15.1441  16.3532  17.6435  18.5771  19.4069  21.2467  24.0553  25.8033

     occupation numbers 
     1.0000   1.0000   1.0000   1.0000   0.0000   0.0000   0.0000   0.0000
     0.0000   0.0000   0.0000   0.0000   0.0000   0.0000   0.0000   0.0000

          k = 0.5000-0.3750 0.6250 (   256 PWs)   bands (ev):

    -3.2289  -0.6978   4.1408   4.8190   8.6710   9.4838  10.3173  14.3855
    15.3114  16.3316  17.8731  18.1875  19.7301  20.3157  25.6229  25.9980

     occupation numbers 
[...]

     occupation numbers 
     1.0000   1.0000   1.0000   1.0000   0.0000   0.0000   0.0000   0.0000
     0.0000   0.0000   0.0000   0.0000   0.0000   0.0000   0.0000   0.0000

          k =-0.1250 0.6250 0.0000 (   257 PWs)   bands (ev):

    -3.9959   1.5610   3.6699   3.9796   7.4705   8.8044  12.5588  13.2619
    15.8496  16.7262  18.4843  19.6493  20.3546  21.3673  22.0397  23.5113

     occupation numbers 
     1.0000   1.0000   1.0000   1.0000   0.0000   0.0000   0.0000   0.0000
     0.0000   0.0000   0.0000   0.0000   0.0000   0.0000   0.0000   0.0000

          k =-0.1875 0.6875-0.0625 (   258 PWs)   bands (ev):

    -3.5666   0.8897   3.2087   3.7988   7.7361   8.9348  12.3980  13.6005
    16.4751  17.8574  17.9879  19.4486  20.6822  21.0221  22.5932  23.9147

     occupation numbers 
     1.0000   1.0000   1.0000   1.0000   0.0000   0.0000   0.0000   0.0000
     0.0000   0.0000   0.0000   0.0000   0.0000   0.0000   0.0000   0.0000

          k = 0.7500-0.2500 0.8750 (   257 PWs)   bands (ev):

    -3.0812   0.2113   2.7318   3.7268   7.8681   9.6311  12.1662  13.6160
    16.6884  17.4451  18.5451  19.3197  20.2508  21.9085  23.7384  24.1884

     occupation numbers 
     1.0000   1.0000   1.0000   1.0000   0.0000   0.0000   0.0000   0.0000
     0.0000   0.0000   0.0000   0.0000   0.0000   0.0000   0.0000   0.0000

          k = 0.6875-0.1875 0.8125 (   255 PWs)   bands (ev):

    -2.6211  -0.3627   2.3296   3.7672   7.9718  10.6487  11.9558  13.5119
    15.3713  17.2588  18.7488  19.8660  20.6847  23.0942  24.3280  25.0428

     occupation numbers 
     1.0000   1.0000   1.0000   1.0000   0.0000   0.0000   0.0000   0.0000
     0.0000   0.0000   0.0000   0.0000   0.0000   0.0000   0.0000   0.0000

          k = 0.6250-0.1250 0.7500 (   254 PWs)   bands (ev):

    -2.4251  -0.5820   2.0554   3.9059   8.1416  11.5135  12.0953  13.3670
    14.0949  16.0527  19.6409  20.1160  21.9391  23.2836  24.0046  24.2459

     occupation numbers 
     1.0000   1.0000   1.0000   1.0000   0.0000   0.0000   0.0000   0.0000
     0.0000   0.0000   0.0000   0.0000   0.0000   0.0000   0.0000   0.0000

          k = 0.5625-0.0625 0.6875 (   258 PWs)   bands (ev):

    -2.6940  -0.2671   1.9516   4.1284   8.3996  11.4379  12.7964  13.0461
    13.5706  14.9237  19.7458  21.1472  21.7257  22.6763  23.4654  24.0524

     occupation numbers 
     1.0000   1.0000   1.0000   1.0000   0.0000   0.0000   0.0000   0.0000
     0.0000   0.0000   0.0000   0.0000   0.0000   0.0000   0.0000   0.0000

          k = 0.5000 0.0000 0.6250 (   258 PWs)   bands (ev):

    -3.1630   0.2567   2.0987   4.4167   8.7324  11.0596  12.0441  12.7706
    14.1629  14.7810  19.6967  20.2713  21.1688  22.3820  23.9729  24.3621

     occupation numbers 
     1.0000   1.0000   1.0000   1.0000   0.0000   0.0000   0.0000   0.0000
     0.0000   0.0000   0.0000   0.0000   0.0000   0.0000   0.0000   0.0000

          k =-0.1250 0.7500 0.0000 (   255 PWs)   bands (ev):

    -3.2717   0.5215   3.3737   3.5635   7.2687   8.1115  13.6235  14.4684
    16.9596  17.9293  18.3044  19.6340  20.5003  21.6348  22.3733  23.2040

     occupation numbers 
     1.0000   1.0000   1.0000   1.0000   0.0000   0.0000   0.0000   0.0000
     0.0000   0.0000   0.0000   0.0000   0.0000   0.0000   0.0000   0.0000

          k = 0.8125-0.1875 0.9375 (   255 PWs)   bands (ev):

    -2.7998  -0.0515   2.8871   3.4534   7.5322   8.4439  13.4302  14.7965
    16.9662  17.6786  18.7001  19.3586  20.9888  21.6290  22.7400  23.8022

     occupation numbers 
     1.0000   1.0000   1.0000   1.0000   0.0000   0.0000   0.0000   0.0000
     0.0000   0.0000   0.0000   0.0000   0.0000   0.0000   0.0000   0.0000

          k = 0.7500-0.1250 0.8750 (   259 PWs)   bands (ev):

    -2.3182  -0.5727   2.3498   3.4848   7.6494   9.3415  13.1874  14.7535
    15.5912  17.3953  18.9100  20.5803  21.3359  21.8558  23.2591  24.7295

     occupation numbers 
     1.0000   1.0000   1.0000   1.0000   0.0000   0.0000   0.0000   0.0000
     0.0000   0.0000   0.0000   0.0000   0.0000   0.0000   0.0000   0.0000

          k = 0.6875-0.0625 0.8125 (   259 PWs)   bands (ev):

    -2.0289  -0.8510   1.9412   3.6171   7.8128  10.4914  12.9486  14.1275
    14.7152  16.1660  20.1090  21.1169  21.9581  22.2743  23.4330  23.9674

     occupation numbers 
     1.0000   1.0000   1.0000   1.0000   0.0000   0.0000   0.0000   0.0000
     0.0000   0.0000   0.0000   0.0000   0.0000   0.0000   0.0000   0.0000

          k = 0.6250 0.0000 0.7500 (   259 PWs)   bands (ev):

    -2.2483  -0.6241   1.7713   3.8363   8.0674  11.7006  12.6275  13.1266
    14.2415  15.2243  20.9139  21.2430  21.4987  22.7879  23.1276  24.6923

     occupation numbers 
     1.0000   1.0000   1.0000   1.0000   0.0000   0.0000   0.0000   0.0000
     0.0000   0.0000   0.0000   0.0000   0.0000   0.0000   0.0000   0.0000

          k = 0.8750-0.1250 1.0000 (   255 PWs)   bands (ev):

    -2.4369  -0.5149   3.2091   3.2997   7.2124   7.6187  14.7372  15.6607
    17.2708  18.0131  18.4533  19.2855  20.2562  21.4299  23.0108  24.2857

     occupation numbers 
     1.0000   1.0000   1.0000   1.0000   0.0000   0.0000   0.0000   0.0000
     0.0000   0.0000   0.0000   0.0000   0.0000   0.0000   0.0000   0.0000

          k = 0.8125-0.0625 0.9375 (   254 PWs)   bands (ev):

    -1.9432  -1.0056   2.7201   3.2881   7.4287   8.1888  14.5250  15.5799
    16.2343  17.4221  18.9935  20.1817  20.6948  21.8211  23.1477  24.7914

     occupation numbers 
     1.0000   1.0000   1.0000   1.0000   0.0000   0.0000   0.0000   0.0000
     0.0000   0.0000   0.0000   0.0000   0.0000   0.0000   0.0000   0.0000

          k = 0.7500 0.0000 0.8750 (   258 PWs)   bands (ev):

    -1.6810  -1.2182   2.2182   3.4077   7.5738   9.2455  14.1370  14.4628
    15.8103  16.4585  19.8667  20.7247  21.6871  22.5320  23.0367  23.4297

     occupation numbers 
     1.0000   1.0000   1.0000   1.0000   0.0000   0.0000   0.0000   0.0000
     0.0000   0.0000   0.0000   0.0000   0.0000   0.0000   0.0000   0.0000

          k =-0.1250-1.0000 0.0000 (   254 PWs)   bands (ev):

    -1.5097  -1.5097   3.1828   3.1828   7.3227   7.3227  15.8399  15.8399
    17.1546  17.1546  19.2831  19.2831  20.4009  20.4009  24.6582  24.6582

     occupation numbers 
     1.0000   1.0000   1.0000   1.0000   0.0000   0.0000   0.0000   0.0000
     0.0000   0.0000   0.0000   0.0000   0.0000   0.0000   0.0000   0.0000

          k =-0.2500 0.5000 0.0000 (   268 PWs)   bands (ev):

    -4.4159   2.0214   3.5109   4.8458   8.7493  10.2869  10.5070  11.8848
    14.2250  16.7207  17.3776  18.4858  20.3347  21.4689  22.4086  24.6764

     occupation numbers 
     1.0000   1.0000   1.0000   1.0000   0.0000   0.0000   0.0000   0.0000
     0.0000   0.0000   0.0000   0.0000   0.0000   0.0000   0.0000   0.0000

          k =-0.3125 0.5625-0.0625 (   263 PWs)   bands (ev):

    -3.9843   1.2466   3.1082   4.5782   9.0604  10.1887  10.6094  12.2381
    14.6564  17.0465  18.0596  18.8201  20.2579  21.8723  22.4848  25.1382

     occupation numbers 
     1.0000   1.0000   1.0000   1.0000   0.0000   0.0000   0.0000   0.0000
     0.0000   0.0000   0.0000   0.0000   0.0000   0.0000   0.0000   0.0000

          k = 0.6250-0.3750 0.8750 (   259 PWs)   bands (ev):

    -3.4982   0.4316   2.9019   4.3251   9.1930   9.8905  11.3743  12.3325
    15.4727  16.1300  18.3729  19.4283  20.6815  21.5773  23.7502  24.7814

     occupation numbers 
     1.0000   1.0000   1.0000   1.0000   0.0000   0.0000   0.0000   0.0000
     0.0000   0.0000   0.0000   0.0000   0.0000   0.0000   0.0000   0.0000

          k = 0.5625-0.3125 0.8125 (   256 PWs)   bands (ev):

    -3.0369  -0.2495   2.8071   4.1497   9.2849   9.6268  12.3063  12.4479
    14.9235  16.4504  18.0839  19.6011  20.7568  22.7941  23.6562  25.4219

     occupation numbers 
     1.0000   1.0000   1.0000   1.0000   0.0000   0.0000   0.0000   0.0000
     0.0000   0.0000   0.0000   0.0000   0.0000   0.0000   0.0000   0.0000

          k = 0.5000-0.2500 0.7500 (   254 PWs)   bands (ev):

    -2.8158  -0.5476   2.7822   4.0866   9.4228   9.4263  12.3128  13.5058
    13.7848  17.0240  18.1506  18.7902  22.0123  22.1136  24.6304  24.9293

     occupation numbers 
     1.0000   1.0000   1.0000   1.0000   0.0000   0.0000   0.0000   0.0000
     0.0000   0.0000   0.0000   0.0000   0.0000   0.0000   0.0000   0.0000

          k =-0.2500 0.6250 0.0000 (   257 PWs)   bands (ev):

    -3.8191   1.2074   3.1105   4.0952   8.4368   9.5608  11.2333  13.1473
    15.4191  17.5078  18.0810  19.3234  20.2695  21.6490  22.1541  24.5760

     occupation numbers 
     1.0000   1.0000   1.0000   1.0000   0.0000   0.0000   0.0000   0.0000
     0.0000   0.0000   0.0000   0.0000   0.0000   0.0000   0.0000   0.0000

          k = 0.6875-0.3125 0.9375 (   255 PWs)   bands (ev):

    -3.3505   0.5440   2.7253   3.8344   8.7525   9.9712  10.9755  13.5094
    16.0121  16.4018  19.2491  19.5043  20.7153  21.0641  23.3267  24.3605

     occupation numbers 
     1.0000   1.0000   1.0000   1.0000   0.0000   0.0000   0.0000   0.0000
     0.0000   0.0000   0.0000   0.0000   0.0000   0.0000   0.0000   0.0000

          k = 0.6250-0.2500 0.8750 (   257 PWs)   bands (ev):

    -2.8693  -0.1041   2.4634   3.6689   8.8825  10.5208  11.0770  13.5802
    15.0616  16.9644  18.7501  19.8911  20.9523  22.2323  24.0715  24.9076

     occupation numbers 
     1.0000   1.0000   1.0000   1.0000   0.0000   0.0000   0.0000   0.0000
     0.0000   0.0000   0.0000   0.0000   0.0000   0.0000   0.0000   0.0000

          k = 0.5625-0.1875 0.8125 (   256 PWs)   bands (ev):

    -2.5320  -0.5201   2.2933   3.6425   9.0236  10.3694  12.1481  13.5411
    13.7499  17.4686  18.4123  19.5452  22.2179  23.4441  23.7400  24.6846

     occupation numbers 
     1.0000   1.0000   1.0000   1.0000   0.0000   0.0000   0.0000   0.0000
     0.0000   0.0000   0.0000   0.0000   0.0000   0.0000   0.0000   0.0000

          k = 0.5000-0.1250 0.7500 (   257 PWs)   bands (ev):

    -2.6270  -0.4018   2.2178   3.7522   9.2369  10.1965  12.4054  13.4080
    13.6031  16.4696  19.0940  19.9212  22.4562  22.6771  23.5384  24.4357

     occupation numbers 
     1.0000   1.0000   1.0000   1.0000   0.0000   0.0000   0.0000   0.0000
     0.0000   0.0000   0.0000   0.0000   0.0000   0.0000   0.0000   0.0000

          k = 0.4375-0.0625 0.6875 (   257 PWs)   bands (ev):

    -3.0513   0.1321   2.2755   3.9748   9.5238  10.0303  11.3524  13.3623
    14.8688  15.4500  19.3566  20.7295  21.1432  21.4276  23.8374  24.6985

     occupation numbers 
     1.0000   1.0000   1.0000   1.0000   0.0000   0.0000   0.0000   0.0000
     0.0000   0.0000   0.0000   0.0000   0.0000   0.0000   0.0000   0.0000

          k = 0.3750 0.0000 0.6250 (   258 PWs)   bands (ev):

    -3.5381   0.7439   2.5471   4.2712   9.6743   9.8578  10.7015  12.9743
    14.7996  16.2056  19.2789  19.6910  20.0699  21.9621  23.0764  24.7279

     occupation numbers 
     1.0000   1.0000   1.0000   1.0000   0.0000   0.0000   0.0000   0.0000
     0.0000   0.0000   0.0000   0.0000   0.0000   0.0000   0.0000   0.0000

          k = 0.7500-0.2500 1.0000 (   253 PWs)   bands (ev):

    -3.1161   0.3514   2.8448   3.4654   8.2347   8.9372  12.1487  14.4287
    16.6682  16.6741  19.3763  19.8484  20.6053  21.0534  23.0995  23.6646

     occupation numbers 
     1.0000   1.0000   1.0000   1.0000   0.0000   0.0000   0.0000   0.0000
     0.0000   0.0000   0.0000   0.0000   0.0000   0.0000   0.0000   0.0000

          k = 0.6875-0.1875 0.9375 (   254 PWs)   bands (ev):

    -2.6298  -0.1973   2.4603   3.2649   8.5323   9.5651  11.8737  14.7776
    15.2683  17.3552  19.0209  20.5764  21.2314  21.3699  23.4222  24.4249

     occupation numbers 
     1.0000   1.0000   1.0000   1.0000   0.0000   0.0000   0.0000   0.0000
     0.0000   0.0000   0.0000   0.0000   0.0000   0.0000   0.0000   0.0000

          k = 0.6250-0.1250 0.8750 (   258 PWs)   bands (ev):

    -2.2150  -0.6408   2.1176   3.2562   8.6783  10.5982  11.6594  13.8400
    14.8497  17.5827  18.7136  20.6730  21.8976  22.5315  23.9926  24.7685

     occupation numbers 
     1.0000   1.0000   1.0000   1.0000   0.0000   0.0000   0.0000   0.0000
     0.0000   0.0000   0.0000   0.0000   0.0000   0.0000   0.0000   0.0000

          k = 0.5625-0.0625 0.8125 (   259 PWs)   bands (ev):

    -2.1875  -0.6597   1.9166   3.3946   8.8870  11.1927  12.0467  12.6115
    14.7164  16.5228  19.7839  20.6856  21.9825  22.9122  23.8929  24.6082

     occupation numbers 
     1.0000   1.0000   1.0000   1.0000   0.0000   0.0000   0.0000   0.0000
     0.0000   0.0000   0.0000   0.0000   0.0000   0.0000   0.0000   0.0000

          k = 0.5000 0.0000 0.7500 (   262 PWs)   bands (ev):

    -2.5783  -0.2732   1.9426   3.6448   9.1758  10.8861  11.5790  13.4134
    14.2979  15.7038  20.5739  20.7029  20.9720  22.8677  23.0600  24.9454

     occupation numbers 
     1.0000   1.0000   1.0000   1.0000   0.0000   0.0000   0.0000   0.0000
     0.0000   0.0000   0.0000   0.0000   0.0000   0.0000   0.0000   0.0000

          k = 0.7500-0.1250 1.0000 (   253 PWs)   bands (ev):

    -2.3180  -0.5457   2.7308   3.0256   8.1651   8.5028  13.1613  15.3598
    15.8614  17.7626  18.7908  20.3781  20.8546  22.2371  23.0329  23.9564

     occupation numbers 
     1.0000   1.0000   1.0000   1.0000   0.0000   0.0000   0.0000   0.0000
     0.0000   0.0000   0.0000   0.0000   0.0000   0.0000   0.0000   0.0000

          k = 0.6875-0.0625 0.9375 (   258 PWs)   bands (ev):

    -1.8555  -0.9832   2.3240   2.9655   8.4155   9.3568  12.8879  14.0247
    16.0913  17.5012  18.9674  20.3707  22.1172  22.6634  23.4451  24.3213

     occupation numbers 
     1.0000   1.0000   1.0000   1.0000   0.0000   0.0000   0.0000   0.0000
     0.0000   0.0000   0.0000   0.0000   0.0000   0.0000   0.0000   0.0000

          k = 0.6250 0.0000 0.8750 (   262 PWs)   bands (ev):

    -1.7948  -1.0124   1.9790   3.1221   8.6062  10.5361  12.5544  12.8097
    15.7513  16.7679  19.6401  20.8425  22.0432  22.9895  23.6764  24.2695

     occupation numbers 
     1.0000   1.0000   1.0000   1.0000   0.0000   0.0000   0.0000   0.0000
     0.0000   0.0000   0.0000   0.0000   0.0000   0.0000   0.0000   0.0000

          k =-0.2500-1.0000 0.0000 (   254 PWs)   bands (ev):

    -1.4506  -1.4506   2.7857   2.7857   8.2474   8.2474  14.2668  14.2668
    17.0672  17.0672  19.3885  19.3885  22.0996  22.0996  23.8660  23.8660

     occupation numbers 
     1.0000   1.0000   1.0000   1.0000   0.0000   0.0000   0.0000   0.0000
     0.0000   0.0000   0.0000   0.0000   0.0000   0.0000   0.0000   0.0000

          k = 0.6250-0.2500 1.0000 (   254 PWs)   bands (ev):

    -2.8784   0.0739   2.3250   3.4865   9.4861  10.0139  10.7344  14.3600
    15.0134  16.2199  20.1075  20.5149  20.6915  21.3904  23.1383  24.8173

     occupation numbers 
     1.0000   1.0000   1.0000   1.0000   0.0000   0.0000   0.0000   0.0000
     0.0000   0.0000   0.0000   0.0000   0.0000   0.0000   0.0000   0.0000

          k = 0.5625-0.1875 0.9375 (   257 PWs)   bands (ev):

    -2.4113  -0.4191   2.1150   3.2343   9.7743  10.2365  11.0724  13.6029
    14.7636  16.9419  19.3899  20.5566  21.6152  22.6775  23.2567  25.3699

     occupation numbers 
     1.0000   1.0000   1.0000   1.0000   0.0000   0.0000   0.0000   0.0000
     0.0000   0.0000   0.0000   0.0000   0.0000   0.0000   0.0000   0.0000

          k = 0.5000-0.1250 0.8750 (   260 PWs)   bands (ev):

    -2.1691  -0.6795   2.0532   3.1428   9.8341  10.1739  12.0026  12.4787
    14.8494  17.6903  18.5961  20.5156  22.0516  23.7067  23.7845  24.6580

     occupation numbers 
     1.0000   1.0000   1.0000   1.0000   0.0000   0.0000   0.0000   0.0000
     0.0000   0.0000   0.0000   0.0000   0.0000   0.0000   0.0000   0.0000

          k = 0.6250-0.1250 1.0000 (   253 PWs)   bands (ev):

    -2.1450  -0.6332   2.2839   2.8559   9.4129   9.6837  11.5908  13.7859
    15.7466  17.4659  19.1146  20.5469  21.6506  22.7382  23.2453  24.8442

     occupation numbers 
     1.0000   1.0000   1.0000   1.0000   0.0000   0.0000   0.0000   0.0000
     0.0000   0.0000   0.0000   0.0000   0.0000   0.0000   0.0000   0.0000

          k = 0.5625-0.0625 0.9375 (   258 PWs)   bands (ev):

    -1.7815  -0.9723   2.1118   2.7305   9.6784  10.6061  11.4235  12.4252
    16.0872  17.5741  18.9448  20.4726  22.0128  23.5006  24.0465  24.6392

     occupation numbers 
     1.0000   1.0000   1.0000   1.0000   0.0000   0.0000   0.0000   0.0000
     0.0000   0.0000   0.0000   0.0000   0.0000   0.0000   0.0000   0.0000

          k = 0.5000 0.0000 0.8750 (   259 PWs)   bands (ev):

    -1.9601  -0.8003   2.0075   2.8952   9.8913  10.7743  11.2945  12.2468
    15.7430  17.1226  19.4002  20.7336  21.7003  23.0021  24.2885  24.9594

     occupation numbers 
     1.0000   1.0000   1.0000   1.0000   0.0000   0.0000   0.0000   0.0000
     0.0000   0.0000   0.0000   0.0000   0.0000   0.0000   0.0000   0.0000

          k =-0.3750-1.0000 0.0000 (   258 PWs)   bands (ev):

    -1.3870  -1.3870   2.4518   2.4518   9.4735   9.4735  12.6233  12.6234
    17.0658  17.0658  19.4877  19.4877  23.0085  23.0085  24.1508  24.1508

     occupation numbers 
     1.0000   1.0000   1.0000   1.0000   0.0000   0.0000   0.0000   0.0000
     0.0000   0.0000   0.0000   0.0000   0.0000   0.0000   0.0000   0.0000

          k =-0.5000-1.0000 0.0000 (   264 PWs)   bands (ev):

    -1.3629  -1.3629   2.3248   2.3248  10.5670  10.5670  11.3851  11.3851
    17.0656  17.0656  19.5308  19.5308  22.8794  22.8794  24.9378  24.9378

     occupation numbers 
     1.0000   1.0000   1.0000   1.0000   0.0000   0.0000   0.0000   0.0000
     0.0000   0.0000   0.0000   0.0000   0.0000   0.0000   0.0000   0.0000

     highest occupied, lowest unoccupied level (ev):     6.3137    6.8267

     Writing output data file Si_nscf_yambo_kx16.save

     init_run     :      0.04s CPU      0.04s WALL (       1 calls)
     electrons    :     33.20s CPU     33.38s WALL (       1 calls)

     Called by init_run:
     wfcinit      :      0.00s CPU      0.00s WALL (       1 calls)
     potinit      :      0.00s CPU      0.00s WALL (       1 calls)

     Called by electrons:
     c_bands      :     33.19s CPU     33.37s WALL (       1 calls)
     v_of_rho     :      0.00s CPU      0.00s WALL (       1 calls)
     v_h          :      0.00s CPU      0.00s WALL (       1 calls)
     v_xc         :      0.00s CPU      0.00s WALL (       1 calls)

     Called by c_bands:
     init_us_2    :      0.01s CPU      0.01s WALL (     145 calls)
     cegterg      :     31.85s CPU     31.93s WALL (     296 calls)

     Called by sum_band:

     Called by *egterg:
     h_psi        :     21.83s CPU     21.93s WALL (    4980 calls)
     g_psi        :      0.14s CPU      0.15s WALL (    4539 calls)
     cdiaghg      :      6.14s CPU      6.18s WALL (    4684 calls)
     cegterg:over :      2.44s CPU      2.43s WALL (    4539 calls)
     cegterg:upda :      1.32s CPU      1.28s WALL (    4539 calls)
     cegterg:last :      0.94s CPU      0.94s WALL (     874 calls)

     Called by h_psi:
     h_psi:vloc   :     21.20s CPU     21.37s WALL (    4980 calls)
     h_psi:vnl    :      0.60s CPU      0.53s WALL (    4980 calls)
     add_vuspsi   :      0.28s CPU      0.24s WALL (    4980 calls)

     General routines
     calbec       :      0.31s CPU      0.27s WALL (    4980 calls)
     fft          :      0.00s CPU      0.00s WALL (       3 calls)
     fftw         :     20.36s CPU     20.51s WALL (   86450 calls)
     davcio       :      0.00s CPU      0.02s WALL (     290 calls)

     Parallel routines
     fft_scatter  :      0.49s CPU      0.51s WALL (   86453 calls)

     PWSCF        :    33.96s CPU        34.21s WALL


   This run was terminated on:  21:11:17  28Oct2016            

=------------------------------------------------------------------------------=
   JOB DONE.
=------------------------------------------------------------------------------=
