#                                                           
#                                                           
# Y88b    /   e           e    e      888~~\    ,88~-_      
#  Y88b  /   d8b         d8b  d8b     888   |  d888   \     
#   Y88b/   /Y88b       d888bdY88b    888 _/  88888    |    
#    Y8Y   /  Y88b     / Y88Y Y888b   888  \  88888    |    
#     Y   /____Y88b   /   YY   Y888b  888   |  Y888   /     
#    /   /      Y88b /          Y888b 888__/    `88_-~      
#                                                           
#                                                           
#       Version 4.1.0 Revision 13945 Hash 8b545ac           
#                       MPI Build                           
#               http://www.yambo-code.org                   
#
# BSK|Identifier              :5907
#    |Dimension               :32
#    |Bands                   :7 - 10
#    |Exchange           [res]: yes
#    |Correlation        [res]: yes
#    |Kernel`s coupling       : no
#    |Exchange           [cpl]: no
#    |Correlation        [cpl]: no
#    |W interaction is bare   : no
#    |ALDA kernel in R-space  : no
#    |RL vectors    [exchange]:51
#    |RL vectors [correlation]:51
#    |E/h energy range    [ev]:-1.000000 - -1.000000
#    |Coupling range     [o/o]: 100.0000 -  100.0000
#  W |Interaction is diagonal : no
#    |Matrix size             :51
#    |Bands                   :1 - 60
#    |e/h energy range    [ev]:-1.000000 - -1.000000
#    |Poles              [o/o]: 100.0000
#    |RL vectors in the sum   :3473
#    |[r,Vnl] included        : yes
#    |Field direction         :0.1000E-4  0.000000  0.000000
#    |Coulomb Cutoff          :none
#    |xc-Kernel               :none
# RIM|RL components      [col]:0
#    |Random points      [col]:0
#
   CRYSTAL
   PRIMVEC
    12.47898   0.00000   0.00000
    -6.23949  10.80712   0.00000
    0.000000  0.000000  6.443175
   PRIMCOORD
    101    1
   -1   2.49580   4.32285   0.00000
       5   1.24790   0.72047   0.00000
       5   0.00000   2.88190   0.00000
       5  -1.24790   5.04332   0.00000
       5  -2.49580   7.20475   0.00000
       5  -3.74370   9.36617   0.00000
       5   3.74370   0.72047   0.00000
       5   2.49580   2.88190   0.00000
       5   1.24790   5.04332   0.00000
       5   0.00000   7.20475   0.00000
       5  -1.24790   9.36617   0.00000
       5   6.23949   0.72047   0.00000
       5   4.99159   2.88190   0.00000
       5   3.74370   5.04332   0.00000
       5   2.49580   7.20475   0.00000
       5   1.24790   9.36617   0.00000
       5   8.73529   0.72047   0.00000
       5   7.48739   2.88190   0.00000
       5   6.23949   5.04332   0.00000
       5   4.99159   7.20475   0.00000
       5   3.74369   9.36617   0.00000
       5  11.23109   0.72047   0.00000
       5   9.98319   2.88190   0.00000
       5   8.73529   5.04332   0.00000
       5   7.48739   7.20475   0.00000
       5   6.23949   9.36617   0.00000
       5  -1.24790  -0.72047   3.22159
       5  -2.49580   1.44095   3.22159
       5  -3.74370   3.60237   3.22159
       5  -4.99159   5.76380   3.22159
       5  -6.23949   7.92522   3.22159
       5   1.24790  -0.72047   3.22159
       5   0.00000   1.44095   3.22159
       5  -1.24790   3.60237   3.22159
       5  -2.49580   5.76380   3.22159
       5  -3.74370   7.92522   3.22159
       5   3.74370  -0.72047   3.22159
       5   2.49580   1.44095   3.22159
       5   1.24790   3.60237   3.22159
       5   0.00000   5.76380   3.22159
       5  -1.24790   7.92522   3.22159
       5   6.23949  -0.72047   3.22159
       5   4.99159   1.44095   3.22159
       5   3.74370   3.60237   3.22159
       5   2.49580   5.76380   3.22159
       5   1.24790   7.92522   3.22159
       5   8.73529  -0.72047   3.22159
       5   7.48739   1.44095   3.22159
       5   6.23949   3.60237   3.22159
       5   4.99159   5.76380   3.22159
       5   3.74370   7.92522   3.22159
       7  -1.24790  -0.72047   0.00000
       7  -2.49580   1.44095   0.00000
       7  -3.74370   3.60237   0.00000
       7  -4.99159   5.76380   0.00000
       7  -6.23949   7.92522   0.00000
       7   1.24790  -0.72047   0.00000
       7   0.00000   1.44095   0.00000
       7  -1.24790   3.60237   0.00000
       7  -2.49580   5.76380   0.00000
       7  -3.74370   7.92522   0.00000
       7   3.74370  -0.72047   0.00000
       7   2.49580   1.44095   0.00000
       7   1.24790   3.60237   0.00000
       7   0.00000   5.76380   0.00000
       7  -1.24790   7.92522   0.00000
       7   6.23949  -0.72047   0.00000
       7   4.99159   1.44095   0.00000
       7   3.74370   3.60237   0.00000
       7   2.49580   5.76380   0.00000
       7   1.24790   7.92522   0.00000
       7   8.73529  -0.72047   0.00000
       7   7.48739   1.44095   0.00000
       7   6.23949   3.60237   0.00000
       7   4.99159   5.76380   0.00000
       7   3.74370   7.92522   0.00000
       7   1.24790   0.72047   3.22159
       7   0.00000   2.88190   3.22159
       7  -1.24790   5.04332   3.22159
       7  -2.49580   7.20475   3.22159
       7  -3.74370   9.36617   3.22159
       7   3.74370   0.72047   3.22159
       7   2.49580   2.88190   3.22159
       7   1.24790   5.04332   3.22159
       7   0.00000   7.20475   3.22159
       7  -1.24790   9.36617   3.22159
       7   6.23949   0.72047   3.22159
       7   4.99159   2.88190   3.22159
       7   3.74370   5.04332   3.22159
       7   2.49580   7.20475   3.22159
       7   1.24790   9.36617   3.22159
       7   8.73529   0.72047   3.22159
       7   7.48739   2.88190   3.22159
       7   6.23949   5.04332   3.22159
       7   4.99159   7.20475   3.22159
       7   3.74369   9.36617   3.22159
       7  11.23109   0.72047   3.22159
       7   9.98319   2.88190   3.22159
       7   8.73529   5.04332   3.22159
       7   7.48739   7.20475   3.22159
       7   6.23949   9.36617   3.22159
   BEGIN_BLOCK_DATAGRID_2D
   Generated with YPP  4   1   0
   BEGIN_DATAGRID_2D
     46   46
    0.000000  0.000000  3.221587
    12.47898   0.00000   0.00000
    -6.23949  10.80712   0.00000
   0.3970E-3
      0.0053
     0.02711
     0.07878
    0.153163
    0.197995
    0.184364
    0.147173
    0.118110
    0.108919
    0.118111
    0.147173
    0.184366
    0.197999
    0.153168
     0.07879
     0.02712
      0.0053
   0.3970E-3
      0.0053
     0.02711
     0.07878
    0.153163
    0.197995
    0.184364
    0.147173
    0.118110
    0.108919
    0.118111
    0.147173
    0.184366
    0.197999
    0.153168
     0.07879
     0.02712
      0.0053
   0.3970E-3
      0.0053
     0.02711
     0.07878
    0.153163
    0.197995
    0.184364
    0.147173
    0.118110
   0.3970E-3
      0.0053
      0.0053
      0.0020
     0.01043
     0.05100
    0.111825
    0.131782
    0.119097
    0.103379
     0.09389
     0.09389
    0.103379
    0.119097
    0.131781
    0.111824
     0.05099
     0.01043
      0.0020
      0.0053
      0.0053
      0.0020
     0.01043
     0.05100
    0.111825
    0.131782
    0.119097
    0.103379
     0.09389
     0.09389
    0.103379
    0.119097
    0.131781
    0.111824
     0.05099
     0.01043
      0.0020
      0.0053
      0.0053
      0.0020
     0.01043
     0.05100
    0.111825
    0.131782
    0.119097
    0.103379
      0.0053
     0.02710
     0.03734
     0.02710
     0.01044
     0.02826
    0.129264
    0.180592
    0.122112
     0.08796
     0.07654
     0.07291
     0.07654
     0.08796
    0.122115
    0.180591
    0.129275
     0.02825
     0.01044
     0.02710
     0.03734
     0.02710
     0.01044
     0.02826
    0.129264
    0.180592
    0.122112
     0.08796
     0.07654
     0.07291
     0.07654
     0.08796
    0.122115
    0.180591
    0.129275
     0.02825
     0.01044
     0.02710
     0.03734
     0.02710
     0.01044
     0.02826
    0.129264
    0.180592
    0.122112
     0.08796
     0.02710
     0.07877
    0.119528
    0.119530
     0.07877
     0.05109
    0.129390
    0.270293
    0.196888
     0.09124
     0.06062
     0.05191
     0.05192
     0.06062
     0.09125
    0.196869
    0.270287
    0.129401
     0.05108
     0.07877
    0.119528
    0.119530
     0.07877
     0.05109
    0.129390
    0.270293
    0.196888
     0.09124
     0.06062
     0.05191
     0.05192
     0.06062
     0.09125
    0.196869
    0.270287
    0.129401
     0.05108
     0.07877
    0.119528
    0.119530
     0.07877
     0.05109
    0.129390
    0.270293
    0.196888
     0.09124
     0.07877
    0.153259
    0.266428
    0.339976
    0.266434
    0.153260
    0.112103
    0.180932
    0.197101
    0.104421
     0.05324
     0.03473
     0.02852
     0.03474
     0.05324
    0.104426
    0.197084
    0.180930
    0.112098
    0.153259
    0.266428
    0.339976
    0.266434
    0.153260
    0.112103
    0.180932
    0.197101
    0.104421
     0.05324
     0.03473
     0.02852
     0.03474
     0.05324
    0.104426
    0.197084
    0.180930
    0.112098
    0.153259
    0.266428
    0.339976
    0.266434
    0.153260
    0.112103
    0.180932
    0.197101
    0.104421
    0.153259
    0.198256
    0.390044
    0.666768
    0.666763
    0.390049
    0.198257
    0.132205
    0.122547
     0.09157
     0.05340
     0.02857
     0.01282
     0.01281
     0.02858
     0.05340
     0.09158
    0.122551
    0.132204
    0.198256
    0.390044
    0.666768
    0.666763
    0.390049
    0.198257
    0.132205
    0.122547
     0.09157
     0.05340
     0.02857
     0.01282
     0.01281
     0.02858
     0.05340
     0.09158
    0.122551
    0.132204
    0.198256
    0.390044
    0.666768
    0.666762
    0.390049
    0.198257
    0.132205
    0.122547
     0.09157
    0.198256
    0.184744
    0.355670
    0.725401
    0.998929
    0.725385
    0.355678
    0.184742
    0.119564
     0.08842
     0.06101
     0.03503
     0.01303
      0.0010
     0.01300
     0.03505
     0.06101
     0.08842
    0.119563
    0.184744
    0.355670
    0.725401
    0.998929
    0.725385
    0.355678
    0.184742
    0.119564
     0.08842
     0.06101
     0.03503
     0.01303
      0.0010
     0.01300
     0.03505
     0.06101
     0.08842
    0.119563
    0.184744
    0.355670
    0.725401
    0.998929
    0.725385
    0.355678
    0.184742
    0.119564
     0.08842
    0.184744
    0.147597
    0.244793
    0.463387
    0.766976
    0.766965
    0.463391
    0.244793
    0.147596
    0.103839
     0.07698
     0.05233
     0.02889
     0.01309
     0.01307
     0.02890
     0.05233
     0.07698
    0.103841
    0.147597
    0.244793
    0.463387
    0.766976
    0.766965
    0.463391
    0.244793
    0.147596
    0.103839
     0.07698
     0.05233
     0.02889
     0.01309
     0.01307
     0.02890
     0.05233
     0.07698
    0.103841
    0.147597
    0.244793
    0.463387
    0.766976
    0.766965
    0.463391
    0.244793
    0.147596
    0.103839
    0.147597
    0.118533
    0.161506
    0.248921
    0.388526
    0.475697
    0.388529
    0.248921
    0.161503
    0.118532
     0.09430
     0.07330
     0.05223
     0.03491
     0.02857
     0.03492
     0.05223
     0.07330
     0.09431
    0.118533
    0.161506
    0.248921
    0.388526
    0.475697
    0.388529
    0.248921
    0.161503
    0.118532
     0.09430
     0.07330
     0.05223
     0.03491
     0.02857
     0.03492
     0.05223
     0.07330
     0.09431
    0.118533
    0.161506
    0.248921
    0.388526
    0.475697
    0.388529
    0.248921
    0.161503
    0.118532
    0.118533
    0.109325
    0.121452
    0.145301
    0.188628
    0.234695
    0.234694
    0.188625
    0.145299
    0.121451
    0.109323
     0.09422
     0.07673
     0.06058
     0.05291
     0.05291
     0.06059
     0.07674
     0.09422
    0.109325
    0.121452
    0.145301
    0.188628
    0.234695
    0.234694
    0.188625
    0.145299
    0.121451
    0.109323
     0.09422
     0.07673
     0.06058
     0.05291
     0.05291
     0.06059
     0.07674
     0.09423
    0.109325
    0.121452
    0.145301
    0.188628
    0.234695
    0.234694
    0.188625
    0.145299
    0.121451
    0.109325
    0.118437
    0.121436
    0.113940
    0.106493
    0.107556
    0.111564
    0.107557
    0.106490
    0.113939
    0.121435
    0.118435
    0.103514
     0.08772
     0.09044
    0.103142
     0.09044
     0.08773
    0.103516
    0.118437
    0.121436
    0.113940
    0.106493
    0.107556
    0.111564
    0.107557
    0.106490
    0.113939
    0.121435
    0.118435
    0.103514
     0.08772
     0.09044
    0.103142
     0.09044
     0.08773
    0.103516
    0.118437
    0.121436
    0.113940
    0.106493
    0.107556
    0.111564
    0.107557
    0.106490
    0.113939
    0.118437
    0.147348
    0.161472
    0.145301
    0.106473
     0.06444
     0.03693
     0.03691
     0.06444
    0.106469
    0.145299
    0.161469
    0.147347
    0.118851
    0.121015
    0.194560
    0.194556
    0.121019
    0.118850
    0.147348
    0.161472
    0.145301
    0.106473
     0.06444
     0.03693
     0.03691
     0.06444
    0.106469
    0.145299
    0.161469
    0.147347
    0.118851
    0.121015
    0.194560
    0.194556
    0.121019
    0.118850
    0.147348
    0.161472
    0.145301
    0.106473
     0.06444
     0.03693
     0.03691
     0.06444
    0.106469
    0.147348
    0.184287
    0.244735
    0.248965
    0.188606
    0.107427
     0.03678
      0.0036
     0.03676
    0.107429
    0.188600
    0.248968
    0.244735
    0.184291
    0.130941
    0.178253
    0.266651
    0.178240
    0.130943
    0.184287
    0.244735
    0.248965
    0.188606
    0.107427
     0.03678
      0.0036
     0.03676
    0.107429
    0.188600
    0.248968
    0.244735
    0.184291
    0.130941
    0.178253
    0.266651
    0.178240
    0.130943
    0.184287
    0.244735
    0.248965
    0.188606
    0.107427
     0.03678
      0.0036
     0.03676
    0.107429
    0.184287
    0.197614
    0.355628
    0.463597
    0.388606
    0.234551
    0.111240
     0.03655
     0.03654
    0.111239
    0.234548
    0.388619
    0.463607
    0.355633
    0.197619
    0.110496
    0.126705
    0.126697
    0.110493
    0.197614
    0.355628
    0.463597
    0.388606
    0.234551
    0.111240
     0.03655
     0.03654
    0.111239
    0.234548
    0.388619
    0.463607
    0.355633
    0.197619
    0.110496
    0.126705
    0.126697
    0.110493
    0.197614
    0.355628
    0.463597
    0.388606
    0.234551
    0.111240
     0.03655
     0.03654
    0.111239
    0.197614
    0.152623
    0.390041
    0.725989
    0.767512
    0.475696
    0.234392
    0.107100
     0.06399
    0.107101
    0.234390
    0.475706
    0.767503
    0.726000
    0.390048
    0.152630
     0.04983
     0.02671
     0.04983
    0.152623
    0.390041
    0.725989
    0.767512
    0.475696
    0.234392
    0.107100
     0.06399
    0.107101
    0.234390
    0.475706
    0.767503
    0.726000
    0.390048
    0.152630
     0.04983
     0.02671
     0.04983
    0.152623
    0.390041
    0.725989
    0.767512
    0.475695
    0.234392
    0.107100
     0.06399
    0.107101
    0.152623
     0.07833
    0.266410
    0.667367
    0.999980
    0.767334
    0.388323
    0.188228
    0.106015
    0.106015
    0.188225
    0.388336
    0.767323
    1.000000
    0.667410
    0.266410
     0.07834
      0.0097
      0.0097
     0.07833
    0.266410
    0.667367
    0.999980
    0.767334
    0.388323
    0.188228
    0.106015
    0.106015
    0.188225
    0.388336
    0.767323
    1.000000
    0.667410
    0.266410
     0.07834
      0.0097
      0.0097
     0.07833
    0.266410
    0.667367
    0.999980
    0.767334
    0.388323
    0.188228
    0.106015
    0.106015
     0.07833
     0.02686
    0.119497
    0.340228
    0.667328
    0.725771
    0.463265
    0.248580
    0.144873
    0.113484
    0.144872
    0.248583
    0.463275
    0.725781
    0.667369
    0.340232
    0.119503
     0.02686
      0.0017
     0.02686
    0.119497
    0.340228
    0.667328
    0.725771
    0.463265
    0.248580
    0.144873
    0.113484
    0.144872
    0.248583
    0.463276
    0.725780
    0.667369
    0.340232
    0.119503
     0.02686
      0.0017
     0.02686
    0.119497
    0.340228
    0.667328
    0.725771
    0.463265
    0.248580
    0.144873
    0.113484
     0.02686
      0.0052
     0.03733
    0.119610
    0.266568
    0.390098
    0.355503
    0.244461
    0.161099
    0.121031
    0.121032
    0.161097
    0.244462
    0.355508
    0.390104
    0.266567
    0.119614
     0.03733
      0.0052
      0.0052
     0.03733
    0.119610
    0.266568
    0.390098
    0.355503
    0.244461
    0.161099
    0.121031
    0.121032
    0.161097
    0.244462
    0.355508
    0.390104
    0.266567
    0.119614
     0.03733
      0.0052
      0.0052
     0.03733
    0.119610
    0.266568
    0.390098
    0.355503
    0.244461
    0.161099
    0.121031
      0.0052
   0.3970E-3
      0.0053
     0.02711
     0.07878
    0.153163
    0.197995
    0.184364
    0.147173
    0.118110
    0.108919
    0.118111
    0.147173
    0.184366
    0.197999
    0.153168
     0.07879
     0.02712
      0.0053
   0.3970E-3
      0.0053
     0.02711
     0.07878
    0.153163
    0.197995
    0.184364
    0.147173
    0.118110
    0.108919
    0.118111
    0.147173
    0.184366
    0.197999
    0.153168
     0.07879
     0.02712
      0.0053
   0.3970E-3
      0.0053
     0.02711
     0.07878
    0.153163
    0.197995
    0.184364
    0.147173
    0.118110
   0.3970E-3
      0.0053
      0.0053
      0.0020
     0.01043
     0.05100
    0.111825
    0.131782
    0.119097
    0.103379
     0.09389
     0.09389
    0.103379
    0.119097
    0.131781
    0.111824
     0.05099
     0.01043
      0.0020
      0.0053
      0.0053
      0.0020
     0.01043
     0.05100
    0.111825
    0.131782
    0.119097
    0.103379
     0.09389
     0.09389
    0.103379
    0.119097
    0.131781
    0.111824
     0.05099
     0.01043
      0.0020
      0.0053
      0.0053
      0.0020
     0.01043
     0.05100
    0.111825
    0.131782
    0.119097
    0.103379
      0.0053
     0.02710
     0.03734
     0.02710
     0.01044
     0.02826
    0.129264
    0.180592
    0.122112
     0.08796
     0.07654
     0.07291
     0.07654
     0.08796
    0.122115
    0.180591
    0.129275
     0.02825
     0.01044
     0.02710
     0.03734
     0.02710
     0.01044
     0.02826
    0.129264
    0.180592
    0.122112
     0.08796
     0.07654
     0.07291
     0.07654
     0.08796
    0.122115
    0.180591
    0.129275
     0.02825
     0.01044
     0.02710
     0.03734
     0.02710
     0.01044
     0.02826
    0.129264
    0.180592
    0.122112
     0.08796
     0.02710
     0.07877
    0.119528
    0.119530
     0.07877
     0.05109
    0.129390
    0.270293
    0.196887
     0.09124
     0.06062
     0.05191
     0.05192
     0.06062
     0.09125
    0.196869
    0.270287
    0.129401
     0.05108
     0.07877
    0.119528
    0.119530
     0.07877
     0.05109
    0.129390
    0.270293
    0.196888
     0.09124
     0.06062
     0.05191
     0.05192
     0.06062
     0.09125
    0.196869
    0.270287
    0.129401
     0.05108
     0.07877
    0.119528
    0.119530
     0.07877
     0.05109
    0.129390
    0.270293
    0.196888
     0.09124
     0.07877
    0.153259
    0.266428
    0.339976
    0.266434
    0.153260
    0.112103
    0.180932
    0.197101
    0.104421
     0.05324
     0.03473
     0.02852
     0.03474
     0.05324
    0.104426
    0.197084
    0.180930
    0.112098
    0.153259
    0.266428
    0.339976
    0.266434
    0.153260
    0.112103
    0.180932
    0.197101
    0.104421
     0.05324
     0.03473
     0.02852
     0.03474
     0.05324
    0.104426
    0.197084
    0.180930
    0.112098
    0.153259
    0.266428
    0.339976
    0.266434
    0.153260
    0.112103
    0.180932
    0.197101
    0.104421
    0.153259
    0.198256
    0.390044
    0.666768
    0.666763
    0.390049
    0.198257
    0.132205
    0.122547
     0.09157
     0.05340
     0.02857
     0.01282
     0.01281
     0.02858
     0.05340
     0.09158
    0.122551
    0.132204
    0.198256
    0.390044
    0.666768
    0.666763
    0.390049
    0.198257
    0.132205
    0.122547
     0.09157
     0.05340
     0.02857
     0.01282
     0.01281
     0.02858
     0.05340
     0.09158
    0.122551
    0.132204
    0.198256
    0.390044
    0.666768
    0.666763
    0.390049
    0.198257
    0.132205
    0.122547
     0.09157
    0.198256
    0.184744
    0.355670
    0.725401
    0.998929
    0.725385
    0.355678
    0.184742
    0.119564
     0.08842
     0.06101
     0.03503
     0.01303
      0.0010
     0.01300
     0.03505
     0.06101
     0.08842
    0.119563
    0.184744
    0.355670
    0.725401
    0.998929
    0.725385
    0.355678
    0.184742
    0.119564
     0.08842
     0.06101
     0.03503
     0.01303
      0.0010
     0.01300
     0.03505
     0.06101
     0.08842
    0.119563
    0.184744
    0.355670
    0.725401
    0.998929
    0.725385
    0.355678
    0.184742
    0.119564
     0.08842
    0.184744
    0.147597
    0.244793
    0.463387
    0.766976
    0.766965
    0.463391
    0.244793
    0.147596
    0.103839
     0.07698
     0.05233
     0.02889
     0.01309
     0.01307
     0.02890
     0.05233
     0.07698
    0.103841
    0.147597
    0.244793
    0.463387
    0.766976
    0.766965
    0.463391
    0.244793
    0.147596
    0.103839
     0.07698
     0.05233
     0.02889
     0.01309
     0.01307
     0.02890
     0.05233
     0.07698
    0.103841
    0.147597
    0.244793
    0.463387
    0.766976
    0.766966
    0.463391
    0.244793
    0.147596
    0.103839
    0.147597
    0.118533
    0.161506
    0.248921
    0.388526
    0.475697
    0.388529
    0.248921
    0.161503
    0.118532
     0.09430
     0.07330
     0.05223
     0.03491
     0.02857
     0.03492
     0.05223
     0.07330
     0.09431
    0.118533
    0.161506
    0.248921
    0.388526
    0.475697
    0.388529
    0.248921
    0.161503
    0.118532
     0.09430
     0.07330
     0.05223
     0.03491
     0.02857
     0.03492
     0.05223
     0.07330
     0.09431
    0.118533
    0.161506
    0.248921
    0.388526
    0.475697
    0.388529
    0.248921
    0.161503
    0.118532
    0.118533
    0.109325
    0.121452
    0.145301
    0.188628
    0.234695
    0.234694
    0.188625
    0.145299
    0.121451
    0.109323
     0.09422
     0.07673
     0.06058
     0.05291
     0.05291
     0.06059
     0.07674
     0.09423
    0.109325
    0.121452
    0.145301
    0.188628
    0.234695
    0.234694
    0.188625
    0.145299
    0.121451
    0.109323
     0.09422
     0.07673
     0.06058
     0.05291
     0.05291
     0.06059
     0.07674
     0.09423
    0.109325
    0.121452
    0.145301
    0.188628
    0.234695
    0.234694
    0.188625
    0.145299
    0.121451
    0.109325
    0.118437
    0.121436
    0.113940
    0.106493
    0.107556
    0.111564
    0.107557
    0.106490
    0.113939
    0.121435
    0.118435
    0.103514
     0.08773
     0.09044
    0.103142
     0.09044
     0.08773
    0.103516
    0.118437
    0.121436
    0.113940
    0.106493
    0.107556
    0.111564
    0.107557
    0.106490
    0.113939
    0.121435
    0.118435
    0.103514
     0.08772
     0.09044
    0.103142
     0.09044
     0.08773
    0.103516
    0.118437
    0.121436
    0.113940
    0.106493
    0.107556
    0.111564
    0.107557
    0.106490
    0.113939
    0.118437
    0.147348
    0.161472
    0.145301
    0.106473
     0.06444
     0.03693
     0.03691
     0.06444
    0.106469
    0.145299
    0.161469
    0.147347
    0.118851
    0.121015
    0.194560
    0.194556
    0.121019
    0.118850
    0.147348
    0.161472
    0.145301
    0.106473
     0.06444
     0.03693
     0.03691
     0.06444
    0.106469
    0.145299
    0.161469
    0.147347
    0.118851
    0.121015
    0.194560
    0.194556
    0.121019
    0.118850
    0.147348
    0.161472
    0.145301
    0.106473
     0.06444
     0.03693
     0.03691
     0.06444
    0.106469
    0.147348
    0.184287
    0.244735
    0.248965
    0.188606
    0.107427
     0.03678
      0.0036
     0.03676
    0.107429
    0.188600
    0.248968
    0.244735
    0.184291
    0.130941
    0.178253
    0.266651
    0.178240
    0.130943
    0.184287
    0.244735
    0.248965
    0.188606
    0.107427
     0.03678
      0.0036
     0.03676
    0.107429
    0.188600
    0.248968
    0.244735
    0.184291
    0.130941
    0.178253
    0.266651
    0.178240
    0.130943
    0.184287
    0.244735
    0.248965
    0.188606
    0.107427
     0.03678
      0.0036
     0.03676
    0.107429
    0.184287
    0.197614
    0.355628
    0.463597
    0.388606
    0.234551
    0.111240
     0.03655
     0.03654
    0.111240
    0.234548
    0.388619
    0.463607
    0.355633
    0.197619
    0.110496
    0.126705
    0.126697
    0.110493
    0.197614
    0.355628
    0.463597
    0.388606
    0.234551
    0.111240
     0.03655
     0.03654
    0.111240
    0.234548
    0.388619
    0.463607
    0.355633
    0.197619
    0.110496
    0.126705
    0.126697
    0.110493
    0.197614
    0.355628
    0.463597
    0.388606
    0.234551
    0.111240
     0.03655
     0.03654
    0.111239
    0.197614
    0.152623
    0.390041
    0.725989
    0.767512
    0.475696
    0.234392
    0.107100
     0.06399
    0.107101
    0.234390
    0.475706
    0.767503
    0.726000
    0.390048
    0.152630
     0.04983
     0.02671
     0.04983
    0.152623
    0.390041
    0.725989
    0.767512
    0.475696
    0.234392
    0.107100
     0.06399
    0.107101
    0.234390
    0.475706
    0.767503
    0.726000
    0.390048
    0.152630
     0.04983
     0.02671
     0.04983
    0.152623
    0.390041
    0.725989
    0.767512
    0.475695
    0.234392
    0.107100
     0.06399
    0.107101
    0.152623
     0.07833
    0.266410
    0.667367
    0.999980
    0.767334
    0.388323
    0.188228
    0.106015
    0.106015
    0.188225
    0.388336
    0.767323
    1.000000
    0.667410
    0.266410
     0.07834
      0.0097
      0.0097
     0.07833
    0.266410
    0.667367
    0.999980
    0.767334
    0.388323
    0.188228
    0.106015
    0.106015
    0.188225
    0.388336
    0.767323
    1.000000
    0.667410
    0.266410
     0.07834
      0.0097
      0.0097
     0.07833
    0.266410
    0.667367
    0.999980
    0.767334
    0.388323
    0.188228
    0.106015
    0.106015
     0.07833
     0.02686
    0.119497
    0.340228
    0.667328
    0.725771
    0.463265
    0.248580
    0.144873
    0.113484
    0.144872
    0.248583
    0.463276
    0.725781
    0.667369
    0.340232
    0.119503
     0.02686
      0.0017
     0.02686
    0.119497
    0.340228
    0.667328
    0.725771
    0.463265
    0.248580
    0.144873
    0.113484
    0.144872
    0.248583
    0.463276
    0.725781
    0.667369
    0.340232
    0.119503
     0.02686
      0.0017
     0.02686
    0.119497
    0.340228
    0.667328
    0.725771
    0.463265
    0.248580
    0.144873
    0.113484
     0.02686
      0.0052
     0.03733
    0.119610
    0.266568
    0.390098
    0.355503
    0.244461
    0.161099
    0.121031
    0.121032
    0.161097
    0.244462
    0.355508
    0.390104
    0.266567
    0.119614
     0.03733
      0.0052
      0.0052
     0.03733
    0.119610
    0.266568
    0.390098
    0.355503
    0.244461
    0.161099
    0.121031
    0.121032
    0.161097
    0.244462
    0.355508
    0.390104
    0.266567
    0.119614
     0.03733
      0.0052
      0.0052
     0.03733
    0.119610
    0.266568
    0.390098
    0.355503
    0.244461
    0.161099
    0.121031
      0.0052
   0.3970E-3
      0.0053
     0.02711
     0.07878
    0.153163
    0.197995
    0.184364
    0.147173
    0.118110
    0.108919
    0.118111
    0.147173
    0.184366
    0.197999
    0.153168
     0.07879
     0.02712
      0.0053
   0.3970E-3
      0.0053
     0.02711
     0.07878
    0.153163
    0.197995
    0.184364
    0.147173
    0.118110
    0.108919
    0.118111
    0.147173
    0.184366
    0.197999
    0.153168
     0.07879
     0.02712
      0.0053
   0.3970E-3
      0.0053
     0.02711
     0.07878
    0.153163
    0.197995
    0.184364
    0.147173
    0.118110
   0.3970E-3
      0.0053
      0.0053
      0.0020
     0.01043
     0.05100
    0.111825
    0.131782
    0.119097
    0.103379
     0.09389
     0.09389
    0.103379
    0.119097
    0.131781
    0.111824
     0.05099
     0.01043
      0.0020
      0.0053
      0.0053
      0.0020
     0.01043
     0.05100
    0.111825
    0.131782
    0.119097
    0.103379
     0.09389
     0.09389
    0.103379
    0.119097
    0.131781
    0.111824
     0.05099
     0.01043
      0.0020
      0.0053
      0.0053
      0.0020
     0.01043
     0.05100
    0.111825
    0.131782
    0.119097
    0.103379
      0.0053
     0.02710
     0.03734
     0.02710
     0.01044
     0.02826
    0.129264
    0.180592
    0.122112
     0.08796
     0.07654
     0.07291
     0.07654
     0.08796
    0.122115
    0.180591
    0.129275
     0.02825
     0.01044
     0.02710
     0.03734
     0.02710
     0.01044
     0.02826
    0.129264
    0.180592
    0.122112
     0.08796
     0.07654
     0.07291
     0.07654
     0.08796
    0.122115
    0.180591
    0.129275
     0.02825
     0.01044
     0.02710
     0.03734
     0.02710
     0.01044
     0.02826
    0.129264
    0.180592
    0.122112
     0.08796
     0.02710
     0.07877
    0.119528
    0.119530
     0.07877
     0.05109
    0.129390
    0.270293
    0.196888
     0.09124
     0.06062
     0.05191
     0.05192
     0.06062
     0.09125
    0.196869
    0.270287
    0.129401
     0.05108
     0.07877
    0.119528
    0.119530
     0.07877
     0.05109
    0.129390
    0.270293
    0.196888
     0.09124
     0.06062
     0.05191
     0.05192
     0.06062
     0.09125
    0.196869
    0.270287
    0.129401
     0.05108
     0.07877
    0.119528
    0.119530
     0.07877
     0.05109
    0.129390
    0.270293
    0.196888
     0.09124
     0.07877