#                                                                     
#                                                                     
# Y88b    /   e           e    e      888~~\    ,88~-_                
#  Y88b  /   d8b         d8b  d8b     888   |  d888   \               
#   Y88b/   /Y88b       d888bdY88b    888 _/  88888    |              
#    Y8Y   /  Y88b     / Y88Y Y888b   888  \  88888    |              
#     Y   /____Y88b   /   YY   Y888b  888   |  Y888   /               
#    /   /      Y88b /          Y888b 888__/    `88_-~                
#                                                                     
#                                                                     
#      Version 5.0.1 Revision 18801 Hash 485082d68                    
#                  Branch is bug-fixes                                
#                 MPI+SLK+HDF5_IO Build                               
#               http://www.yambo-code.org                             
#
   CRYSTAL
   PRIMVEC
     2.49579692      0.00000000      0.00000000   
    -1.24789846      2.16142368      0.00000000   
     0.00000000      0.00000000      6.44317484   
   PRIMCOORD
     4   1
    5   1.24790   0.72047   0.00000
    5  -1.24790  -0.72047   3.22159
    7  -1.24790  -0.72047   0.00000
    7   1.24790   0.72047   3.22159
   BEGIN_BLOCK_DATAGRID_3D
   Generated with YPP:   5   0   1
   BEGIN_DATAGRID_3D
    10  10  22
     0.00000000      0.00000000      0.00000000   
     2.49579692      0.00000000      0.00000000   
    -1.24789846      2.16142368      0.00000000   
     0.00000000      0.00000000      6.44317484   
    0.120911602E-3
    0.169777399E-3
    0.346374436E-3
    0.741851924E-3
    0.128223584E-2
    0.128210918E-2
    0.741708209E-3
    0.346289424E-3
    0.169751380E-3
    0.120911602E-3
    0.169754538E-3
    0.169771534E-3
    0.210011989E-3
    0.369129790E-3
    0.684902014E-3
    0.867464696E-3
    0.685050967E-3
    0.369192363E-3
    0.210002123E-3
    0.169754538E-3
    0.346316403E-3
    0.343618507E-3
    0.346420566E-3
    0.369278714E-3
    0.429163163E-3
    0.383228209E-3
    0.383469829E-3
    0.429381675E-3
    0.369225832E-3
    0.346316403E-3
    0.741812692E-3
    0.897601189E-3
    0.897837570E-3
    0.742170610E-3
    0.685475476E-3
    0.383644452E-3
    0.617638798E-4
    0.383532722E-3
    0.685163075E-3
    0.741812692E-3
    0.128230208E-2
    0.217620912E-2
    0.260499655E-2
    0.217754254E-2
    0.128312362E-2
    0.868269359E-3
    0.383592764E-3
    0.383234204E-3
    0.867581752E-3
    0.128230208E-2
    0.128239451E-2
    0.298302621E-2
    0.332211261E-2
    0.332404627E-2
    0.298487209E-2
    0.128310558E-2
    0.685421051E-3
    0.429102365E-3
    0.684927974E-3
    0.128239451E-2
    0.741906231E-3
    0.217726873E-2
    0.332403206E-2
    0.914847362E-3
    0.332413311E-2
    0.217754976E-2
    0.742141565E-3
    0.369248883E-3
    0.369131507E-3
    0.741906231E-3
    0.346396759E-3
    0.897963590E-3
    0.260625849E-2
    0.332363439E-2
    0.332197966E-2
    0.260500214E-2
    0.897823542E-3
    0.346419081E-3
    0.210012906E-3
    0.346396759E-3
    0.169783161E-3
    0.343704945E-3
    0.897910097E-3
    0.217694696E-2
    0.298256846E-2
    0.217601354E-2
    0.897539139E-3
    0.343612715E-3
    0.169778184E-3
    0.169783161E-3
    0.120911602E-3
    0.169777399E-3
    0.346374436E-3
    0.741851924E-3
    0.128223584E-2
    0.128210918E-2
    0.741708209E-3
    0.346289424E-3
    0.169751380E-3
    0.120911602E-3
    0.718062394E-3
    0.237582647E-2
    0.963459257E-2
    0.253997985E-1
    0.449669473E-1
    0.449654795E-1
    0.253979247E-1
    0.963506009E-2
    0.237601832E-2
    0.718062394E-3
    0.239217188E-2
    0.239191460E-2
    0.420168834E-2
    0.114502916E-1
    0.263252892E-1
    0.368796624E-1
    0.263241380E-1
    0.114520760E-1
    0.420383038E-2
    0.239217188E-2
    0.976683851E-2
    0.976729020E-2
    0.976651441E-2
    0.114945117E-1
    0.230131447E-1
    0.491064116E-1
    0.491064861E-1
    0.230141990E-1
    0.114956321E-1
    0.976683851E-2
    0.255110785E-1
    0.322461091E-1
    0.322460793E-1
    0.255121160E-1
    0.264251996E-1
    0.490826219E-1
    0.723235458E-1
    0.490820669E-1
    0.264237672E-1
    0.255110785E-1
    0.447193384E-1
    0.103803046   
    0.162423179   
    0.103804022   
    0.447202623E-1
    0.369856842E-1
    0.491099022E-1
    0.491092242E-1
    0.369850695E-1
    0.447193384E-1
    0.447477549E-1
    0.172330648   
    0.526979268   
    0.526981235   
    0.172332913   
    0.447473153E-1
    0.264295470E-1
    0.230994485E-1
    0.264291279E-1
    0.447477549E-1
    0.254401118E-1
    0.104133584   
    0.527284026   
    0.999872506   
    0.527283907   
    0.104132526   
    0.254394244E-1
    0.114687737E-1
    0.114680640E-1
    0.254401118E-1
    0.966319907E-2
    0.324248858E-1
    0.163097680   
    0.527282774   
    0.527280688   
    0.163096115   
    0.324240401E-1
    0.966336485E-2
    0.417858316E-2
    0.966319907E-2
    0.237997621E-2
    0.967519358E-2
    0.323975980E-1
    0.104355186   
    0.173107609   
    0.104352988   
    0.323967300E-1
    0.967471022E-2
    0.237991079E-2
    0.237997621E-2
    0.718062394E-3
    0.237582647E-2
    0.963459257E-2
    0.253997985E-1
    0.449669473E-1
    0.449654795E-1
    0.253979247E-1
    0.963506009E-2
    0.237601832E-2
    0.718062394E-3
    0.154460687E-2
    0.457405625E-2
    0.178550333E-1
    0.425975844E-1
    0.662470609E-1
    0.662476644E-1
    0.425982997E-1
    0.178532600E-1
    0.457354123E-2
    0.154460687E-2
    0.451192446E-2
    0.451226532E-2
    0.866081193E-2
    0.207765494E-1
    0.381201953E-1
    0.482475981E-1
    0.381206870E-1
    0.207750816E-1
    0.865837373E-2
    0.451192446E-2
    0.178607218E-1
    0.176821761E-1
    0.178615507E-1
    0.207909122E-1
    0.301931743E-1
    0.468401201E-1
    0.468409471E-1
    0.301942993E-1
    0.207897536E-1
    0.178607218E-1
    0.430401377E-1
    0.503900126E-1
    0.503894463E-1
    0.430401638E-1
    0.381602570E-1
    0.468075089E-1
    0.584212914E-1
    0.468086377E-1
    0.381607488E-1
    0.430401377E-1
    0.666043237E-1
    0.104110867   
    0.131460220   
    0.104109719   
    0.666043311E-1
    0.483046509E-1
    0.469680727E-1
    0.469683856E-1
    0.483050607E-1
    0.666043237E-1
    0.664378032E-1
    0.141063571   
    0.271643490   
    0.271641582   
    0.141062409   
    0.664383695E-1
    0.380831063E-1
    0.302267559E-1
    0.380831510E-1
    0.664378032E-1
    0.426762365E-1
    0.104160726   
    0.272520959   
    0.422317982   
    0.272519827   
    0.104163058   
    0.426769145E-1
    0.207191724E-1
    0.207195468E-1
    0.426762365E-1
    0.178997163E-1
    0.501158573E-1
    0.131950527   
    0.273117244   
    0.273118049   
    0.131956235   
    0.501192883E-1
    0.178987198E-1
    0.875065196E-2
    0.178997163E-1
    0.456160912E-2
    0.177039504E-1
    0.500202887E-1
    0.104169868   
    0.141499028   
    0.104173414   
    0.500243306E-1
    0.177038386E-1
    0.456142519E-2
    0.456160912E-2
    0.154460687E-2
    0.457405625E-2
    0.178550333E-1
    0.425975844E-1
    0.662470609E-1
    0.662476644E-1
    0.425982997E-1
    0.178532600E-1
    0.457354123E-2
    0.154460687E-2
    0.191161688E-2
    0.422586733E-2
    0.129819624E-1
    0.283751991E-1
    0.446678400E-1
    0.446682833E-1
    0.283758622E-1
    0.129827755E-1
    0.422679447E-2
    0.191161688E-2
    0.426926743E-2
    0.426883204E-2
    0.794351473E-2
    0.157646220E-1
    0.253804885E-1
    0.309791770E-1
    0.253812708E-1
    0.157657936E-1
    0.794502441E-2
    0.426926743E-2
    0.127422037E-1
    0.128787169E-1
    0.127415108E-1
    0.157911163E-1
    0.214159600E-1
    0.268669128E-1
    0.268666912E-1
    0.214156583E-1
    0.157922767E-1
    0.127422037E-1
    0.277680606E-1
    0.346705504E-1
    0.346710198E-1
    0.277672373E-1
    0.251803324E-1
    0.268866606E-1
    0.292837564E-1
    0.268864352E-1
    0.251811408E-1
    0.277680606E-1
    0.444568954E-1
    0.631061122E-1
    0.739517435E-1
    0.631065890E-1
    0.444565378E-1
    0.308246128E-1
    0.268729217E-1
    0.268729329E-1
    0.308247115E-1
    0.444568954E-1
    0.447241515E-1
    0.783842728E-1
    0.104777977   
    0.104777932   
    0.783839896E-1
    0.447242074E-1
    0.252977870E-1
    0.212630481E-1
    0.252978429E-1
    0.447241515E-1
    0.281876717E-1
    0.629514903E-1
    0.104207195   
    0.122223794   
    0.104205295   
    0.629494563E-1
    0.281874463E-1
    0.157421809E-1
    0.157422069E-1
    0.281876717E-1
    0.129897995E-1
    0.345976353E-1
    0.728487000E-1
    0.103527069   
    0.103525221   
    0.728436336E-1
    0.345944278E-1
    0.129898908E-1
    0.800207816E-2
    0.129897995E-1
    0.423326530E-2
    0.130618513E-1
    0.347365104E-1
    0.627207607E-1
    0.774862543E-1
    0.627183095E-1
    0.347328819E-1
    0.130611546E-1
    0.423375284E-2
    0.423326530E-2
    0.191161688E-2
    0.422586733E-2
    0.129819624E-1
    0.283751991E-1
    0.446678400E-1
    0.446682833E-1
    0.283758622E-1
    0.129827755E-1
    0.422679447E-2
    0.191161688E-2
    0.105020031E-2
    0.296133291E-2
    0.816516671E-2
    0.144931562E-1
    0.199480932E-1
    0.199483149E-1
    0.144934906E-1
    0.816590991E-2
    0.296068005E-2
    0.105020031E-2
    0.294513511E-2
    0.294527994E-2
    0.558439642E-2
    0.993510056E-2
    0.145333875E-1
    0.168502964E-1
    0.145326508E-1
    0.993399601E-2
    0.558460504E-2
    0.294513511E-2
    0.828371570E-2
    0.796141848E-2
    0.828328356E-2
    0.100323418E-1
    0.127866743E-1
    0.149388397E-1
    0.149389114E-1
    0.127855511E-1
    0.100314105E-1
    0.828371570E-2
    0.145260897E-1
    0.156651568E-1
    0.156648532E-1
    0.145258438E-1
    0.146111781E-1
    0.148992408E-1
    0.149356518E-1
    0.148994643E-1
    0.146105736E-1
    0.145260897E-1
    0.199406017E-1
    0.236595403E-1
    0.262528416E-1
    0.236590765E-1
    0.199402478E-1
    0.169648156E-1
    0.149125513E-1
    0.149127021E-1
    0.169647131E-1
    0.199406017E-1
    0.200234074E-1
    0.283258185E-1
    0.373750590E-1
    0.373756140E-1
    0.283262022E-1
    0.200232696E-1
    0.145969614E-1
    0.127493916E-1
    0.145970844E-1
    0.200234074E-1
    0.144990692E-1
    0.240125414E-1
    0.378043577E-1
    0.464858375E-1
    0.378063507E-1
    0.240138806E-1
    0.144991325E-1
    0.992773753E-2
    0.992791913E-2
    0.144990692E-1
    0.819245633E-2
    0.156061454E-1
    0.268273633E-1
    0.381446332E-1
    0.381460674E-1
    0.268299021E-1
    0.156074669E-1
    0.819275342E-2
    0.562270032E-2
    0.819245633E-2
    0.297011877E-2
    0.781283900E-2
    0.156537648E-1
    0.242318865E-1
    0.288131759E-1
    0.242337063E-1
    0.156553984E-1
    0.781347882E-2
    0.296961330E-2
    0.297011877E-2
    0.105020031E-2
    0.296133291E-2
    0.816516671E-2
    0.144931562E-1
    0.199480932E-1
    0.199483149E-1
    0.144934906E-1
    0.816590991E-2
    0.296068005E-2
    0.105020031E-2
    0.128178822E-2
    0.223352970E-2
    0.543415314E-2
    0.104398374E-1
    0.133366724E-1
    0.133362040E-1
    0.104385410E-1
    0.543365814E-2
    0.223429711E-2
    0.128178822E-2
    0.220973650E-2
    0.220942125E-2
    0.384869426E-2
    0.769902766E-2
    0.120978579E-1
    0.135152740E-1
    0.120986402E-1
    0.769930659E-2
    0.384887168E-2
    0.220973650E-2
    0.541865826E-2
    0.454917643E-2
    0.541895209E-2
    0.764143700E-2
    0.112726083E-1
    0.136152739E-1
    0.136164092E-1
    0.112746740E-1
    0.764175178E-2
    0.541865826E-2
    0.105792219E-1
    0.923696533E-2
    0.923720188E-2
    0.105798179E-1
    0.120977368E-1
    0.137463296E-1
    0.140073821E-1
    0.137477443E-1
    0.120984400E-1
    0.105792219E-1
    0.133000081E-1
    0.139883822E-1
    0.139400465E-1
    0.139883114E-1
    0.133002065E-1
    0.135542974E-1
    0.138954157E-1
    0.138956886E-1
    0.135545293E-1
    0.133000081E-1
    0.132029550E-1
    0.153020164E-1
    0.172896329E-1
    0.172893964E-1
    0.153013831E-1
    0.132026765E-1
    0.121279070E-1
    0.113928346E-1
    0.121278390E-1
    0.132029550E-1
    0.104049612E-1
    0.138029642E-1
    0.172166601E-1
    0.188035201E-1
    0.172162820E-1
    0.138016101E-1
    0.104042301E-1
    0.751976017E-2
    0.751981745E-2
    0.104049612E-1
    0.539892493E-2
    0.913714245E-2
    0.137257939E-1
    0.170629621E-1
    0.170628130E-1
    0.137244361E-1
    0.913557038E-2
    0.539870001E-2
    0.377500337E-2
    0.539892493E-2
    0.225824560E-2
    0.459737843E-2
    0.908282027E-2
    0.136783281E-1
    0.151788434E-1
    0.136770587E-1
    0.908101816E-2
    0.459728111E-2
    0.225870009E-2
    0.225824560E-2
    0.128178822E-2
    0.223352970E-2
    0.543415314E-2
    0.104398374E-1
    0.133366724E-1
    0.133362040E-1
    0.104385410E-1
    0.543365814E-2
    0.223429711E-2
    0.128178822E-2
    0.954176299E-3
    0.246202271E-2
    0.656942232E-2
    0.118509438E-1
    0.153039563E-1
    0.153046688E-1
    0.118528828E-1
    0.657001883E-2
    0.246115238E-2
    0.954176299E-3
    0.249187066E-2
    0.249228952E-2
    0.617348263E-2
    0.117229139E-1
    0.169804078E-1
    0.192690417E-1
    0.169798769E-1
    0.117228692E-1
    0.617281068E-2
    0.249187066E-2
    0.657822657E-2
    0.425466197E-2
    0.657801330E-2
    0.118171098E-1
    0.179439783E-1
    0.237221830E-1
    0.237207618E-1
    0.179421287E-1
    0.118171228E-1
    0.657822657E-2
    0.118433069E-1
    0.782550778E-2
    0.782514177E-2
    0.118423896E-1
    0.170388184E-1
    0.235900916E-1
    0.278508291E-1
    0.235885587E-1
    0.170387514E-1
    0.118433069E-1
    0.153191481E-1
    0.121362070E-1
    0.105742030E-1
    0.121361883E-1
    0.153187588E-1
    0.191442277E-1
    0.233407244E-1
    0.233406033E-1
    0.191445146E-1
    0.153191481E-1
    0.154584153E-1
    0.138879521E-1
    0.125561887E-1
    0.125561198E-1
    0.138883423E-1
    0.154587179E-1
    0.170678589E-1
    0.177880414E-1
    0.170683321E-1
    0.154584153E-1
    0.121544413E-1
    0.122275539E-1
    0.124836080E-1
    0.122897243E-1
    0.124828946E-1
    0.122284461E-1
    0.121554192E-1
    0.120449709E-1
    0.120450482E-1
    0.121544413E-1
    0.665540202E-2
    0.799700990E-2
    0.106116813E-1
    0.125026554E-1
    0.125020156E-1
    0.106118377E-1
    0.799878221E-2
    0.665576942E-2
    0.626162067E-2
    0.665540202E-2
    0.240445905E-2
    0.425485102E-2
    0.803168211E-2
    0.122307213E-1
    0.138667980E-1
    0.122316591E-1
    0.803383440E-2
    0.425523473E-2
    0.240401179E-2
    0.240445905E-2
    0.954176299E-3
    0.246202271E-2
    0.656942232E-2
    0.118509438E-1
    0.153039563E-1
    0.153046688E-1
    0.118528828E-1
    0.657001883E-2
    0.246115238E-2
    0.954176299E-3
    0.145315751E-2
    0.368878013E-2
    0.103263948E-1
    0.201112777E-1
    0.302609969E-1
    0.302600637E-1
    0.201094486E-1
    0.103247706E-1
    0.368967559E-2
    0.145315751E-2
    0.369211892E-2
    0.369153358E-2
    0.101210717E-1
    0.236254483E-1
    0.405299328E-1
    0.498083010E-1
    0.405300297E-1
    0.236261450E-1
    0.101213241E-1
    0.369211892E-2
    0.103359949E-1
    0.714128558E-2
    0.103366328E-1
    0.234270915E-1
    0.466458313E-1
    0.670527667E-1
    0.670531690E-1
    0.466475040E-1
    0.234277174E-1
    0.103359949E-1
    0.199874658E-1
    0.128923357E-1
    0.128925163E-1
    0.199880786E-1
    0.403042696E-1
    0.671173334E-1
    0.803062394E-1
    0.671170652E-1
    0.403042063E-1
    0.199874658E-1
    0.302489735E-1
    0.193628762E-1
    0.170333572E-1
    0.193628892E-1
    0.302491821E-1
    0.496998876E-1
    0.671198219E-1
    0.671191365E-1
    0.496992953E-1
    0.302489735E-1
    0.299311094E-1
    0.230586119E-1
    0.204876736E-1
    0.204875190E-1
    0.230583809E-1
    0.299303886E-1
    0.399464369E-1
    0.465932228E-1
    0.399462506E-1
    0.299311094E-1
    0.196043085E-1
    0.192535575E-1
    0.205074232E-1
    0.214561578E-1
    0.205073543E-1
    0.192529205E-1
    0.196030997E-1
    0.233152602E-1
    0.233151820E-1
    0.196043085E-1
    0.102848187E-1
    0.129509894E-1
    0.170980673E-1
    0.204884019E-1
    0.204884838E-1
    0.170985460E-1
    0.129497955E-1
    0.102838408E-1
    0.101300664E-1
    0.102848187E-1
    0.373679935E-2
    0.710530346E-2
    0.128180170E-1
    0.192653462E-1
    0.230196659E-1
    0.192646924E-1
    0.128166229E-1
    0.710378913E-2
    0.373711204E-2
    0.373679935E-2
    0.145315751E-2
    0.368878013E-2
    0.103263948E-1
    0.201112777E-1
    0.302609969E-1
    0.302600637E-1
    0.201094486E-1
    0.103247706E-1
    0.368967559E-2
    0.145315751E-2
    0.198962912E-2
    0.464119576E-2
    0.163909402E-1
    0.382030159E-1
    0.597745106E-1
    0.597744249E-1
    0.382034108E-1
    0.163920391E-1
    0.463982392E-2
    0.198962912E-2
    0.463816011E-2
    0.463905791E-2
    0.165045466E-1
    0.460351594E-1
    0.858877972E-1
    0.108136803   
    0.858883038E-1
    0.460362136E-1
    0.165046453E-1
    0.463816011E-2
    0.164225921E-1
    0.881137699E-2
    0.164219365E-1
    0.460721217E-1
    0.101230316   
    0.159924686   
    0.159925297   
    0.101231389   
    0.460729711E-1
    0.164225921E-1
    0.381459370E-1
    0.191596188E-1
    0.191591103E-1
    0.381456353E-1
    0.863505080E-1
    0.160363257   
    0.206554577   
    0.160365149   
    0.863513425E-1
    0.381459370E-1
    0.600338094E-1
    0.328298211E-1
    0.261553563E-1
    0.328296870E-1
    0.600341223E-1
    0.109106682   
    0.160582304   
    0.160583496   
    0.109107874   
    0.600338094E-1
    0.600299910E-1
    0.406506322E-1
    0.356261618E-1
    0.356262699E-1
    0.406508557E-1
    0.600302853E-1
    0.867562965E-1
    0.102334082   
    0.867564902E-1
    0.600299910E-1
    0.381241776E-1
    0.328080729E-1
    0.355540849E-1
    0.407301560E-1
    0.355544649E-1
    0.328081176E-1
    0.381243564E-1
    0.464366116E-1
    0.464364067E-1
    0.381241776E-1
    0.161763448E-1
    0.192188770E-1
    0.262753628E-1
    0.355772302E-1
    0.355774947E-1
    0.262761693E-1
    0.192200411E-1
    0.161768105E-1
    0.163178500E-1
    0.161763448E-1
    0.461946102E-2
    0.871796906E-2
    0.192582514E-1
    0.329897963E-1
    0.407960713E-1
    0.329899453E-1
    0.192598626E-1
    0.871902611E-2
    0.461899443E-2
    0.461946102E-2
    0.198962912E-2
    0.464119576E-2
    0.163909402E-1
    0.382030159E-1
    0.597745106E-1
    0.597744249E-1
    0.382034108E-1
    0.163920391E-1
    0.463982392E-2
    0.198962912E-2
    0.118550891E-2
    0.392844202E-2
    0.158930644E-1
    0.392040052E-1
    0.637476668E-1
    0.637476295E-1
    0.392037444E-1
    0.158938393E-1
    0.392971653E-2
    0.118550891E-2
    0.392450765E-2
    0.392374117E-2
    0.156874172E-1
    0.469376035E-1
    0.121015713   
    0.183598295   
    0.121012464   
    0.469336808E-1
    0.156879462E-1
    0.392450765E-2
    0.159324445E-1
    0.728414021E-2
    0.159319956E-1
    0.469798036E-1
    0.171891019   
    0.470312476   
    0.470310867   
    0.171884462   
    0.469764993E-1
    0.159324445E-1
    0.392745249E-1
    0.186529662E-1
    0.186532997E-1
    0.392750017E-1
    0.120542571   
    0.469385624   
    0.836824417   
    0.469384015   
    0.120539814   
    0.392745249E-1
    0.636282042E-1
    0.379543193E-1
    0.314702578E-1
    0.379542708E-1
    0.636283010E-1
    0.182156667   
    0.468200445   
    0.468200535   
    0.182155728   
    0.636282042E-1
    0.637431443E-1
    0.503410101E-1
    0.578090772E-1
    0.578087308E-1
    0.503402352E-1
    0.637433678E-1
    0.120051742   
    0.170377105   
    0.120051935   
    0.637431443E-1
    0.396291353E-1
    0.380383171E-1
    0.576710999E-1
    0.791899413E-1
    0.576695278E-1
    0.380380861E-1
    0.396295711E-1
    0.469255932E-1
    0.469261184E-1
    0.396291353E-1
    0.160430856E-1
    0.187119581E-1
    0.313546471E-1
    0.576965734E-1
    0.576953590E-1
    0.313522071E-1
    0.187115073E-1
    0.160434097E-1
    0.157823116E-1
    0.160430856E-1
    0.389106083E-2
    0.723869912E-2
    0.186489746E-1
    0.378820971E-1
    0.501835085E-1
    0.378817804E-1
    0.186481588E-1
    0.723910984E-2
    0.389156491E-2
    0.389106083E-2
    0.118550891E-2
    0.392844202E-2
    0.158930644E-1
    0.392040052E-1
    0.637476668E-1
    0.637476295E-1
    0.392037444E-1
    0.158938393E-1
    0.392971653E-2
    0.118550891E-2
    0.295683072E-3
    0.823686132E-3
    0.313439453E-2
    0.875231065E-2
    0.165822897E-1
    0.165833384E-1
    0.875376910E-2
    0.313401292E-2
    0.823141017E-3
    0.295683072E-3
    0.821720634E-3
    0.821955386E-3
    0.322237168E-2
    0.118492777E-1
    0.435075685E-1
    0.754354969E-1
    0.435095392E-1
    0.118508032E-1
    0.322247832E-2
    0.821720634E-3
    0.315202610E-2
    0.133146660E-2
    0.315215369E-2
    0.118940081E-1
    0.713870972E-1
    0.245598584   
    0.245598748   
    0.713889897E-1
    0.118954703E-1
    0.315202610E-2
    0.880053733E-2
    0.375586050E-2
    0.375607889E-2
    0.879962929E-2
    0.436637886E-1
    0.246218041   
    0.474259257   
    0.246216461   
    0.436652154E-1
    0.880053733E-2
    0.164978839E-1
    0.941973645E-2
    0.844069850E-2
    0.941973738E-2
    0.164972227E-1
    0.755258054E-1
    0.246511176   
    0.246509522   
    0.755245760E-1
    0.164978839E-1
    0.164151303E-1
    0.135969808E-1
    0.193385817E-1
    0.193392076E-1
    0.135975648E-1
    0.164156519E-1
    0.436195359E-1
    0.716489032E-1
    0.436188467E-1
    0.164151303E-1
    0.871558860E-2
    0.936259143E-2
    0.193735473E-1
    0.295103472E-1
    0.193748716E-1
    0.936386734E-2
    0.871629361E-2
    0.118033662E-1
    0.118032461E-1
    0.871558860E-2
    0.320009608E-2
    0.376437115E-2
    0.840743631E-2
    0.193894114E-1
    0.193900615E-1
    0.840786844E-2
    0.376399746E-2
    0.319985207E-2
    0.327101653E-2
    0.320009608E-2
    0.858771440E-3
    0.138710917E-2
    0.374790793E-2
    0.932965614E-2
    0.135545861E-1
    0.933080912E-2
    0.374729093E-2
    0.138577109E-2
    0.858459622E-3
    0.858771440E-3
    0.295683072E-3
    0.823686132E-3
    0.313439453E-2
    0.875231065E-2
    0.165822897E-1
    0.165833384E-1
    0.875376910E-2
    0.313401292E-2
    0.823141017E-3
    0.295683072E-3
    0.328399823E-3
    0.874550082E-3
    0.319887488E-2
    0.873990916E-2
    0.163958129E-1
    0.163969509E-1
    0.874144118E-2
    0.319851120E-2
    0.874018529E-3
    0.328399823E-3
    0.875825936E-3
    0.876052247E-3
    0.326885702E-2
    0.118482569E-1
    0.436465479E-1
    0.754953846E-1
    0.436491407E-1
    0.118498895E-1
    0.326895854E-2
    0.875825936E-3
    0.318108220E-2
    0.143604015E-2
    0.318124983E-2
    0.118040871E-1
    0.715204775E-1
    0.246553823   
    0.246556222   
    0.715237781E-1
    0.118055930E-1
    0.318108220E-2
    0.869505201E-2
    0.374762854E-2
    0.374790328E-2
    0.869425666E-2
    0.434929579E-1
    0.245939434   
    0.474273950   
    0.245940655   
    0.434949175E-1
    0.869505201E-2
    0.164838042E-1
    0.932299811E-2
    0.840789452E-2
    0.932304841E-2
    0.164831001E-1
    0.754098371E-1
    0.245649099   
    0.245647714   
    0.754089803E-1
    0.164838042E-1
    0.165653341E-1
    0.135829579E-1
    0.194150880E-1
    0.194155984E-1
    0.135833602E-1
    0.165656637E-1
    0.435396992E-1
    0.712627098E-1
    0.435391143E-1
    0.165653341E-1
    0.877827592E-2
    0.937869772E-2
    0.193790384E-1
    0.294143632E-1
    0.193801448E-1
    0.937981717E-2
    0.877886545E-2
    0.118963467E-1
    0.118962517E-1
    0.877827592E-2
    0.313323829E-2
    0.373948086E-2
    0.844004750E-2
    0.193627328E-1
    0.193633772E-1
    0.844047684E-2
    0.373912486E-2
    0.313301967E-2
    0.322031858E-2
    0.313323829E-2
    0.839250744E-3
    0.138154975E-2
    0.375587889E-2
    0.941056851E-2
    0.136240730E-1
    0.941176247E-2
    0.375530636E-2
    0.138025684E-2
    0.838949345E-3
    0.839250744E-3
    0.328399823E-3
    0.874550082E-3
    0.319887488E-2
    0.873990916E-2
    0.163958129E-1
    0.163969509E-1
    0.874144118E-2
    0.319851120E-2
    0.874018529E-3
    0.328399823E-3
    0.116455532E-2
    0.387631357E-2
    0.160281826E-1
    0.395549573E-1
    0.636487380E-1
    0.636488348E-1
    0.395548195E-1
    0.160289966E-1
    0.387763046E-2
    0.116455532E-2
    0.388279045E-2
    0.388199999E-2
    0.157524589E-1
    0.469522104E-1
    0.119980946   
    0.181574091   
    0.119978063   
    0.469483882E-1
    0.157530252E-1
    0.388279045E-2
    0.159916878E-1
    0.721955672E-2
    0.159912780E-1
    0.469108298E-1
    0.170885041   
    0.468347043   
    0.468346447   
    0.170879260   
    0.469075702E-1
    0.159916878E-1
    0.394873470E-1
    0.187323857E-1
    0.187327992E-1
    0.394879617E-1
    0.120457955   
    0.469279200   
    0.836965203   
    0.469278902   
    0.120455422   
    0.394873470E-1
    0.637734160E-1
    0.380537845E-1
    0.312837437E-1
    0.380537957E-1
    0.637734905E-1
    0.183023378   
    0.470466107   
    0.470466465   
    0.183022797   
    0.637734160E-1
    0.636578649E-1
    0.503562130E-1
    0.575902797E-1
    0.575898774E-1
    0.503553338E-1
    0.636578202E-1
    0.120946042   
    0.172395766   
    0.120946527   
    0.636578649E-1
    0.391315892E-1
    0.379683301E-1
    0.577277504E-1
    0.790658891E-1
    0.577260144E-1
    0.379679538E-1
    0.391318984E-1
    0.469610244E-1
    0.469615981E-1
    0.391315892E-1
    0.158792473E-1
    0.186722241E-1
    0.313985646E-1
    0.576992221E-1
    0.576979369E-1
    0.313960649E-1
    0.186718013E-1
    0.158796329E-1
    0.156579614E-1
    0.158792473E-1
    0.391445076E-2
    0.726324460E-2
    0.187346321E-1
    0.381214172E-1
    0.505075790E-1
    0.381211825E-1
    0.187338889E-1
    0.726372283E-2
    0.391497090E-2
    0.391445076E-2
    0.116455532E-2
    0.387631357E-2
    0.160281826E-1
    0.395549573E-1
    0.636487380E-1
    0.636488348E-1
    0.395548195E-1
    0.160289966E-1
    0.387763046E-2
    0.116455532E-2
    0.193949963E-2
    0.462348713E-2
    0.162759610E-1
    0.381024256E-1
    0.601530187E-1
    0.601529703E-1
    0.381028615E-1
    0.162770841E-1
    0.462214882E-2
    0.193949963E-2
    0.462485803E-2
    0.462573348E-2
    0.163983703E-1
    0.463544615E-1
    0.868453309E-1
    0.109524801   
    0.868459046E-1
    0.463556349E-1
    0.163985603E-1
    0.462485803E-2
    0.162478369E-1
    0.869173091E-2
    0.162471849E-1
    0.463189669E-1
    0.102007851   
    0.160660654   
    0.160661533   
    0.102009207   
    0.463199429E-1
    0.162478369E-1
    0.381635390E-1
    0.192164555E-1
    0.192159824E-1
    0.381632708E-1
    0.863851607E-1
    0.160222426   
    0.206439421   
    0.160224497   
    0.863860548E-1
    0.381635390E-1
    0.598978810E-1
    0.328112617E-1
    0.262048822E-1
    0.328111723E-1
    0.598982349E-1
    0.108557373   
    0.160004571   
    0.160005689   
    0.108558618   
    0.598978810E-1
    0.599011034E-1
    0.406583771E-1
    0.355420858E-1
    0.355421789E-1
    0.406586789E-1
    0.599014536E-1
    0.859796628E-1
    0.100906044   
    0.859799013E-1
    0.599011034E-1
    0.381834470E-1
    0.328310616E-1
    0.356125422E-1
    0.410476774E-1
    0.356129333E-1
    0.328312106E-1
    0.381837338E-1
    0.459552780E-1
    0.459550060E-1
    0.381834470E-1
    0.164917484E-1
    0.191531274E-1
    0.260810181E-1
    0.355878957E-1
    0.355881788E-1
    0.260818452E-1
    0.191543698E-1
    0.164922941E-1
    0.165850651E-1
    0.164917484E-1
    0.464428263E-2
    0.878236350E-2
    0.191126056E-1
    0.326468833E-1
    0.405091532E-1
    0.326470733E-1
    0.191142745E-1
    0.878346991E-2
    0.464382162E-2
    0.464428263E-2
    0.193949963E-2
    0.462348713E-2
    0.162759610E-1
    0.381024256E-1
    0.601530187E-1
    0.601529703E-1
    0.381028615E-1
    0.162770841E-1
    0.462214882E-2
    0.193949963E-2
    0.145190849E-2
    0.372160855E-2
    0.102999760E-1
    0.196523909E-1
    0.300230645E-1
    0.300221145E-1
    0.196505543E-1
    0.102983695E-1
    0.372254895E-2
    0.145190849E-2
    0.372023298E-2
    0.371962902E-2
    0.100990748E-1
    0.232239738E-1
    0.399689451E-1
    0.496960953E-1
    0.399690196E-1
    0.232246928E-1
    0.100993691E-1
    0.372023298E-2
    0.102893123E-1
    0.712362258E-2
    0.102899410E-1
    0.234231576E-1
    0.465446636E-1
    0.671064705E-1
    0.671069250E-1
    0.465463102E-1
    0.234237742E-1
    0.102893123E-1
    0.197756868E-1
    0.129558770E-1
    0.129560838E-1
    0.197763778E-1
    0.401964039E-1
    0.670434535E-1
    0.802196488E-1
    0.670431107E-1
    0.401961729E-1
    0.197756868E-1
    0.300363507E-1
    0.192434154E-1
    0.172468871E-1
    0.192435645E-1
    0.300367940E-1
    0.498071648E-1
    0.670415759E-1
    0.670407638E-1
    0.498062894E-1
    0.300363507E-1
    0.303548537E-1
    0.230365153E-1
    0.205484778E-1
    0.205483828E-1
    0.230365023E-1
    0.303544439E-1
    0.405543335E-1
    0.465995260E-1
    0.405539423E-1
    0.303548537E-1
    0.201599319E-1
    0.193521902E-1
    0.205276832E-1
    0.215110444E-1
    0.205277968E-1
    0.193518382E-1
    0.201589391E-1
    0.235357042E-1
    0.235355441E-1
    0.201599319E-1
    0.103413137E-1
    0.128969410E-1
    0.171794984E-1
    0.205456410E-1
    0.205458067E-1
    0.171801429E-1
    0.128959026E-1
    0.103404392E-1
    0.100903660E-1
    0.103413137E-1
    0.367418723E-2
    0.715985056E-2
    0.130296666E-1
    0.193390734E-1
    0.230729543E-1
    0.193384662E-1
    0.130283339E-1
    0.715840934E-2
    0.367452949E-2
    0.367418723E-2
    0.145190849E-2
    0.372160855E-2