#  __      __   ______   __       __  _______    ______     
# |  \    /  \ /      \ |  \     /  \|       \  /      \    
#  \$$\  /  $$|  $$$$$$\| $$\   /  $$| $$$$$$$\|  $$$$$$\   
#   \$$\/  $$ | $$__| $$| $$$\ /  $$$| $$__/ $$| $$  | $$   
#    \$$  $$  | $$    $$| $$$$\  $$$$| $$    $$| $$  | $$   
#     \$$$$   | $$$$$$$$| $$\$$ $$ $$| $$$$$$$\| $$  | $$   
#     | $$    | $$  | $$| $$ \$$$| $$| $$__/ $$| $$__/ $$   
#     | $$    | $$  | $$| $$  \$ | $$| $$    $$ \$$    $$   
#      \$$     \$$   \$$ \$$      \$$ \$$$$$$$   \$$$$$$    
#                                                           
#        Version 4.1.0 Revision 13945 Hash 8b545ac          
#                        MPI Build                          
#                http://www.yambo-code.org                  
#
# BSK|Identifier              :5907
#    |Dimension               :32
#    |Bands                   :7 - 10
#    |Exchange           [res]: yes
#    |Correlation        [res]: yes
#    |Kernel`s coupling       : no
#    |Exchange           [cpl]: no
#    |Correlation        [cpl]: no
#    |W interaction is bare   : no
#    |ALDA kernel in R-space  : no
#    |RL vectors    [exchange]:51
#    |RL vectors [correlation]:51
#    |E/h energy range    [ev]:-1.000000 - -1.000000
#    |Coupling range     [o/o]: 100.0000 -  100.0000
#  W |Interaction is diagonal : no
#    |Matrix size             :51
#    |Bands                   :1 - 60
#    |e/h energy range    [ev]:-1.000000 - -1.000000
#    |Poles              [o/o]: 100.0000
#    |RL vectors in the sum   :3473
#    |[r,Vnl] included        : yes
#    |Field direction         :0.1000E-4  0.000000  0.000000
#    |Coulomb Cutoff          :none
#    |xc-Kernel               :none
# RIM|RL components      [col]:0
#    |Random points      [col]:0
#
   CRYSTAL
   PRIMVEC
    2.495797  0.000000  0.000000
   -1.247898  2.161424  0.000000
    0.000000  0.000000  6.443175
   PRIMCOORD
     4   1
       5   1.24790   0.72047   0.00000
       5  -1.24790  -0.72047   3.22159
       7  -1.24790  -0.72047   0.00000
       7   1.24790   0.72047   3.22159
   BEGIN_BLOCK_DATAGRID_3D
   Generated with YPP  4   1   0
   BEGIN_DATAGRID_3D
    10  10  22
    0.00      0.00      0.00    
    2.495797  0.000000  0.000000
   -1.247898  2.161424  0.000000
    0.000000  0.000000  6.443175
   0.141E-11
   0.9202E-6
   0.4896E-4
   0.6734E-3
      0.0033
      0.0033
   0.6734E-3
   0.4896E-4
   0.9201E-6
   0.141E-11
   0.9201E-6
   0.9199E-6
   0.2846E-5
   0.4500E-4
   0.3531E-3
   0.7388E-3
   0.3531E-3
   0.4500E-4
   0.2846E-5
   0.9201E-6
   0.4899E-4
   0.4793E-4
   0.4899E-4
   0.4504E-4
   0.6027E-4
   0.3455E-4
   0.3455E-4
   0.6027E-4
   0.4504E-4
   0.4899E-4
   0.6742E-3
      0.0010
      0.0010
   0.6744E-3
   0.3536E-3
   0.3454E-4
   0.153E-11
   0.3453E-4
   0.3536E-3
   0.6742E-3
      0.0033
      0.0099
     0.01130
      0.0099
      0.0033
   0.7398E-3
   0.3454E-4
   0.3454E-4
   0.7399E-3
      0.0033
      0.0033
     0.02269
     0.02737
     0.02737
     0.02269
      0.0033
   0.3534E-3
   0.6024E-4
   0.3534E-3
      0.0033
   0.6747E-3
      0.0099
     0.02743
   0.2053E-8
     0.02743
      0.0099
   0.6748E-3
   0.4501E-4
   0.4501E-4
   0.6747E-3
   0.4905E-4
      0.0010
     0.01133
     0.02736
     0.02736
     0.01133
      0.0010
   0.4904E-4
   0.2845E-5
   0.4905E-4
   0.9204E-6
   0.4803E-4
      0.0010
      0.0099
     0.02265
      0.0099
      0.0010
   0.4802E-4
   0.9208E-6
   0.9204E-6
   0.141E-11
   0.9202E-6
   0.4896E-4
   0.6734E-3
      0.0033
      0.0033
   0.6734E-3
   0.4896E-4
   0.9201E-6
   0.141E-11
   0.2205E-6
      0.0031
     0.02115
     0.08635
    0.221251
    0.221249
     0.08636
     0.02115
      0.0031
   0.2205E-6
      0.0032
      0.0032
   0.9528E-3
     0.01291
    0.107727
    0.220810
    0.107689
     0.01291
   0.9504E-3
      0.0032
     0.02152
     0.02288
     0.02152
     0.01312
     0.01162
     0.09013
     0.09033
     0.01174
     0.01313
     0.02152
     0.08642
     0.07989
     0.07988
     0.08643
    0.109095
     0.09031
   0.7017E-4
     0.09044
    0.109043
     0.08642
    0.219459
    0.294894
    0.306096
    0.294849
    0.219371
    0.223366
     0.09070
     0.09067
    0.223213
    0.219459
    0.219549
    0.550953
    0.689206
    0.689089
    0.550853
    0.219452
    0.108944
     0.01201
    0.108903
    0.219549
     0.08624
    0.294061
    0.685609
   0.1505E-3
    0.685960
    0.293942
     0.08628
     0.01303
     0.01304
     0.08624
     0.02136
     0.08049
    0.304068
    0.687611
    0.688054
    0.303950
     0.08047
     0.02137
   0.9526E-3
     0.02136
      0.0031
     0.02287
     0.08108
    0.297425
    0.554615
    0.297405
     0.08106
     0.02289
      0.0031
      0.0031
   0.2205E-6
      0.0031
     0.02115
     0.08635
    0.221251
    0.221249
     0.08636
     0.02115
      0.0031
   0.2205E-6
   0.8144E-6
     0.01483
     0.09152
    0.302727
    0.610020
    0.610032
    0.302786
     0.09155
     0.01482
   0.8144E-6
     0.01443
     0.01444
      0.0052
     0.04188
    0.252566
    0.447275
    0.252492
     0.04188
      0.0052
     0.01443
     0.09196
    0.107095
     0.09196
     0.04231
     0.01726
    0.105676
    0.105821
     0.01732
     0.04228
     0.09196
    0.309221
    0.304251
    0.304242
    0.309314
    0.254242
    0.101971
   0.4187E-4
    0.102255
    0.254178
    0.309221
    0.616733
    0.593581
    0.512726
    0.593540
    0.616860
    0.450929
    0.103136
    0.103292
    0.450863
    0.616733
    0.616205
    0.798159
    0.539437
    0.539337
    0.798023
    0.616362
    0.253803
     0.01665
    0.253764
    0.616205
    0.307621
    0.593134
    0.532688
   0.2896E-4
    0.532500
    0.593001
    0.307840
     0.04208
     0.04204
    0.307621
     0.09172
    0.303857
    0.510339
    0.541321
    0.541239
    0.510108
    0.303902
     0.09176
      0.0054
     0.09172
     0.01468
    0.106823
    0.301991
    0.594756
    0.809791
    0.594709
    0.302025
    0.106837
     0.01467
     0.01468
   0.8144E-6
     0.01483
     0.09152
    0.302727
    0.610020
    0.610032
    0.302786
     0.09155
     0.01482
   0.8144E-6
   0.1506E-4
     0.01357
     0.06290
    0.170832
    0.312571
    0.312581
    0.170792
     0.06286
     0.01356
   0.1506E-4
     0.01374
     0.01374
      0.0066
     0.02087
    0.105942
    0.179456
    0.105964
     0.02087
      0.0066
     0.01374
     0.06050
     0.08238
     0.06050
     0.02104
      0.0041
     0.02840
     0.02842
      0.0041
     0.02104
     0.06050
    0.163004
    0.205464
    0.205479
    0.162966
    0.101292
     0.03014
   0.1119E-3
     0.03014
    0.101348
    0.163004
    0.309908
    0.301581
    0.263859
    0.301587
    0.309921
    0.176066
     0.02973
     0.02971
    0.176113
    0.309908
    0.310432
    0.334102
    0.154598
    0.154619
    0.334178
    0.310450
    0.102677
      0.0040
    0.102733
    0.310432
    0.165020
    0.300961
    0.158440
   0.2030E-4
    0.158522
    0.301027
    0.164909
     0.02090
     0.02090
    0.165020
     0.06201
    0.204409
    0.262193
    0.153574
    0.153620
    0.262331
    0.204448
     0.06197
      0.0066
     0.06201
     0.01374
     0.08363
    0.204269
    0.296254
    0.323975
    0.296285
    0.204302
     0.08361
     0.01374
     0.01374
   0.1506E-4
     0.01357
     0.06290
    0.170832
    0.312571
    0.312581
    0.170792
     0.06286
     0.01356
   0.1506E-4
   0.1328E-4
      0.0082
     0.02571
     0.04202
     0.05352
     0.05352
     0.04202
     0.02572
      0.0082
   0.1328E-4
      0.0082
      0.0082
      0.0062
      0.0081
     0.02039
     0.03023
     0.02039
      0.0081
      0.0062
      0.0082
     0.02649
     0.03594
     0.02649
      0.0093
   0.7259E-4
      0.0055
      0.0055
   0.6527E-4
      0.0093
     0.02649
     0.04206
     0.05847
     0.05847
     0.04206
     0.02178
      0.0048
   0.5521E-4
      0.0048
     0.02177
     0.04206
     0.05342
     0.05789
     0.05875
     0.05789
     0.05342
     0.03220
      0.0050
      0.0050
     0.03219
     0.05342
     0.05363
     0.05359
     0.03212
     0.03212
     0.05357
     0.05363
     0.02149
   0.9008E-4
     0.02148
     0.05363
     0.04207
     0.05852
     0.03093
   0.4831E-4
     0.03091
     0.05847
     0.04206
      0.0085
      0.0085
     0.04207
     0.02606
     0.05897
     0.05982
     0.03171
     0.03170
     0.05978
     0.05895
     0.02606
      0.0063
     0.02606
      0.0082
     0.03526
     0.05935
     0.06159
     0.05779
     0.06156
     0.05934
     0.03526
      0.0082
      0.0082
   0.1328E-4
      0.0082
     0.02571
     0.04202
     0.05352
     0.05352
     0.04202
     0.02572
      0.0082
   0.1328E-4
   0.1273E-4
      0.0041
     0.01135
     0.01123
      0.0034
      0.0034
     0.01125
     0.01135
      0.0041
   0.1273E-4
      0.0040
      0.0040
      0.0069
      0.0091
      0.0044
   0.1623E-3
      0.0044
      0.0091
      0.0069
      0.0040
     0.01121
     0.01141
     0.01121
      0.0088
      0.0053
   0.7801E-3
   0.7785E-3
      0.0053
      0.0088
     0.01121
     0.01178
     0.01688
     0.01688
     0.01178
      0.0043
   0.8396E-3
   0.2428E-4
   0.8377E-3
      0.0043
     0.01178
      0.0040
     0.01062
     0.01318
     0.01062
      0.0040
   0.1267E-3
   0.7197E-3
   0.7202E-3
   0.1258E-3
      0.0040
      0.0039
      0.0048
      0.0038
      0.0038
      0.0048
      0.0039
      0.0045
      0.0058
      0.0045
      0.0039
     0.01148
     0.01033
      0.0040
   0.4630E-4
      0.0040
     0.01035
     0.01149
      0.0091
      0.0091
     0.01148
     0.01111
     0.01645
     0.01293
      0.0042
      0.0042
     0.01294
     0.01647
     0.01112
      0.0068
     0.01111
      0.0043
     0.01158
     0.01639
      0.0097
      0.0039
      0.0097
     0.01641
     0.01158
      0.0043
      0.0043
   0.1273E-4
      0.0041
     0.01135
     0.01123
      0.0034
      0.0034
     0.01125
     0.01135
      0.0041
   0.1273E-4
   0.6857E-5
      0.0058
     0.01660
     0.02102
     0.01783
     0.01782
     0.02100
     0.01658
      0.0058
   0.6857E-5
      0.0058
      0.0058
     0.02093
     0.03122
     0.02528
     0.01917
     0.02528
     0.03121
     0.02093
      0.0058
     0.01656
      0.0059
     0.01657
     0.03135
     0.02684
     0.01191
     0.01192
     0.02686
     0.03135
     0.01656
     0.02223
      0.0071
      0.0071
     0.02225
     0.02539
     0.01134
   0.2293E-5
     0.01136
     0.02540
     0.02223
     0.02031
      0.0085
      0.0014
      0.0085
     0.02034
     0.01932
     0.01162
     0.01162
     0.01933
     0.02031
     0.02037
      0.0091
      0.0010
      0.0010
      0.0091
     0.02038
     0.02521
     0.02626
     0.02521
     0.02037
     0.02290
      0.0086
   0.8900E-3
   0.2220E-4
   0.8856E-3
      0.0087
     0.02290
     0.03162
     0.03162
     0.02290
     0.01697
      0.0073
      0.0013
      0.0013
      0.0013
      0.0013
      0.0073
     0.01697
     0.02116
     0.01697
      0.0053
      0.0058
      0.0072
      0.0080
      0.0080
      0.0080
      0.0072
      0.0058
      0.0054
      0.0053
   0.6857E-5
      0.0058
     0.01660
     0.02102
     0.01783
     0.01782
     0.02100
     0.01658
      0.0058
   0.6857E-5
   0.1470E-4
     0.01091
     0.04029
     0.08695
    0.140926
    0.140931
     0.08700
     0.04031
     0.01090
   0.1470E-4
     0.01094
     0.01095
     0.05608
    0.115323
    0.147360
    0.153125
    0.147381
    0.115331
     0.05608
     0.01094
     0.04041
      0.0069
     0.04040
    0.114495
    0.137725
     0.07815
     0.07814
    0.137695
    0.114506
     0.04041
     0.08316
     0.01249
     0.01250
     0.08307
    0.143509
     0.07892
   0.8353E-5
     0.07889
    0.143544
     0.08316
    0.136014
     0.04805
      0.0012
     0.04803
    0.135957
    0.149206
     0.07902
     0.07901
    0.149214
    0.136014
    0.135355
     0.07969
     0.01365
     0.01366
     0.07967
    0.135313
    0.143515
    0.137962
    0.143523
    0.135355
     0.08156
     0.04766
     0.01370
   0.5158E-5
     0.01371
     0.04764
     0.08154
    0.113896
    0.113886
     0.08156
     0.03996
     0.01331
   0.9107E-3
     0.01322
     0.01322
   0.9399E-3
     0.01332
     0.03996
     0.05612
     0.03996
     0.01137
      0.0068
     0.01179
     0.04830
     0.07979
     0.04830
     0.01179
      0.0068
     0.01136
     0.01137
   0.1470E-4
     0.01091
     0.04029
     0.08695
    0.140926
    0.140931
     0.08700
     0.04031
     0.01090
   0.1470E-4
   0.7508E-5
     0.01573
     0.08728
    0.268324
    0.514262
    0.514237
    0.268309
     0.08730
     0.01575
   0.7508E-5
     0.01577
     0.01575
    0.108208
    0.290008
    0.468378
    0.551386
    0.468328
    0.289933
    0.108228
     0.01577
     0.08623
      0.0065
     0.08620
    0.291882
    0.397313
    0.279600
    0.279579
    0.397238
    0.291791
     0.08623
    0.267179
     0.03380
     0.03381
    0.267217
    0.478405
    0.283913
   0.2864E-4
    0.283897
    0.478316
    0.267179
    0.521365
    0.183717
      0.0087
    0.183656
    0.521557
    0.566104
    0.280406
    0.280421
    0.566030
    0.521365
    0.521716
    0.317592
     0.05679
     0.05672
    0.317536
    0.521864
    0.478525
    0.398485
    0.478520
    0.521716
    0.267245
    0.182880
     0.05697
   0.1083E-3
     0.05683
    0.182818
    0.267256
    0.293806
    0.293800
    0.267245
     0.08507
     0.03354
      0.0095
     0.05696
     0.05688
      0.0094
     0.03354
     0.08507
    0.107089
     0.08507
     0.01533
      0.0064
     0.03431
    0.187339
    0.320072
    0.187330
     0.03431
      0.0064
     0.01533
     0.01533
   0.7508E-5
     0.01573
     0.08728
    0.268324
    0.514262
    0.514237
    0.268309
     0.08730
     0.01575
   0.7508E-5
   0.1965E-6
      0.0096
     0.06260
    0.228764
    0.517337
    0.517335
    0.228712
     0.06257
      0.0096
   0.1965E-6
      0.0095
      0.0095
     0.07004
    0.221734
    0.609227
    0.997301
    0.609292
    0.221736
     0.07001
      0.0095
     0.06335
      0.0032
     0.06340
    0.222074
    0.568864
    0.954225
    0.954076
    0.569173
    0.222087
     0.06335
    0.232736
     0.03354
     0.03356
    0.232908
    0.597903
    0.933871
   0.1064E-3
    0.933783
    0.598165
    0.232736
    0.516513
    0.235607
     0.02034
    0.235670
    0.516422
    0.968040
    0.949782
    0.949862
    0.968276
    0.516513
    0.516482
    0.445880
    0.137519
    0.137384
    0.446034
    0.516408
    0.599813
    0.574393
    0.599879
    0.516482
    0.233611
    0.235934
    0.135807
   0.7192E-4
    0.135494
    0.236053
    0.233691
    0.221082
    0.221091
    0.233611
     0.06393
     0.03390
     0.01999
    0.139177
    0.138969
     0.01990
     0.03392
     0.06393
     0.07058
     0.06393
      0.0095
      0.0031
     0.03289
    0.231041
    0.438866
    0.231154
     0.03290
      0.0031
      0.0095
      0.0095
   0.1965E-6
      0.0096
     0.06260
    0.228764
    0.517337
    0.517335
    0.228712
     0.06257
      0.0096
   0.1965E-6
   0.5511E-7
   0.2499E-3
      0.0017
      0.0073
     0.01967
     0.01967
      0.0073
      0.0017
   0.2502E-3
   0.5511E-7
   0.2525E-3
   0.2523E-3
      0.0018
      0.0067
     0.02797
     0.05374
     0.02797
      0.0067
      0.0018
   0.2525E-3
      0.0017
   0.9002E-4
      0.0017
      0.0065
     0.03268
     0.08528
     0.08514
     0.03267
      0.0065
      0.0017
      0.0069
      0.0011
      0.0011
      0.0069
     0.02851
     0.08933
   0.3154E-4
     0.08922
     0.02852
      0.0069
     0.01944
     0.01024
      0.0011
     0.01024
     0.01943
     0.05732
     0.08713
     0.08716
     0.05733
     0.01944
     0.01945
     0.02269
     0.01125
     0.01126
     0.02271
     0.01944
     0.02840
     0.03231
     0.02841
     0.01945
      0.0069
     0.01030
     0.01152
   0.1657E-4
     0.01150
     0.01030
      0.0069
      0.0064
      0.0064
      0.0069
      0.0017
      0.0011
      0.0011
     0.01110
     0.01106
      0.0011
      0.0011
      0.0017
      0.0017
      0.0017
   0.2625E-3
   0.1043E-3
      0.0011
     0.01053
     0.02292
     0.01053
      0.0011
   0.1048E-3
   0.2626E-3
   0.2625E-3
   0.5511E-7
   0.2499E-3
      0.0017
      0.0073
     0.01967
     0.01967
      0.0073
      0.0017
   0.2502E-3
   0.5511E-7
   0.5455E-7
   0.2586E-3
      0.0017
      0.0069
     0.01945
     0.01945
      0.0069
      0.0017
   0.2589E-3
   0.5455E-7
   0.2564E-3
   0.2562E-3
      0.0017
      0.0064
     0.02840
     0.05708
     0.02842
      0.0064
      0.0017
   0.2564E-3
      0.0017
   0.1108E-3
      0.0017
      0.0066
     0.03223
     0.08721
     0.08719
     0.03225
      0.0066
      0.0017
      0.0073
      0.0011
      0.0011
      0.0073
     0.02785
     0.08314
   0.3160E-4
     0.08301
     0.02786
      0.0073
     0.01969
     0.01055
      0.0011
     0.01055
     0.01968
     0.05349
     0.08517
     0.08508
     0.05345
     0.01969
     0.01967
     0.02284
     0.01110
     0.01113
     0.02286
     0.01967
     0.02797
     0.03260
     0.02796
     0.01967
      0.0073
     0.01049
     0.01086
   0.1704E-4
     0.01085
     0.01049
      0.0073
      0.0067
      0.0067
      0.0073
      0.0017
      0.0011
      0.0011
     0.01128
     0.01124
      0.0011
      0.0011
      0.0017
      0.0018
      0.0017
   0.2461E-3
   0.9627E-4
      0.0011
     0.01025
     0.02261
     0.01025
      0.0011
   0.9684E-4
   0.2462E-3
   0.2461E-3
   0.5455E-7
   0.2586E-3
      0.0017
      0.0069
     0.01945
     0.01945
      0.0069
      0.0017
   0.2589E-3
   0.5455E-7
   0.1980E-6
      0.0094
     0.06404
    0.233617
    0.516341
    0.516357
    0.233583
     0.06401
      0.0094
   0.1980E-6
      0.0095
      0.0095
     0.07039
    0.221354
    0.599908
    0.970953
    0.599994
    0.221353
     0.07036
      0.0095
     0.06321
      0.0031
     0.06326
    0.221013
    0.577252
    0.950404
    0.950444
    0.577583
    0.221019
     0.06321
    0.229430
     0.03328
     0.03331
    0.229617
    0.611069
    0.970398
   0.1071E-3
    0.970288
    0.611274
    0.229430
    0.517308
    0.232309
     0.02041
    0.232433
    0.517242
    0.999925
    0.953888
    0.953712
    1.000000
    0.517308
    0.517321
    0.440798
    0.138759
    0.138743
    0.441007
    0.517260
    0.609267
    0.571768
    0.609253
    0.517321
    0.228662
    0.231948
    0.140633
   0.7330E-4
    0.140432
    0.232117
    0.228746
    0.221975
    0.221973
    0.228662
     0.06267
     0.03293
     0.02083
    0.137004
    0.136789
     0.02075
     0.03297
     0.06268
     0.06981
     0.06267
      0.0095
      0.0032
     0.03393
    0.236729
    0.447783
    0.236864
     0.03395
      0.0032
      0.0095
      0.0095
   0.1980E-6
      0.0094
     0.06404
    0.233617
    0.516341
    0.516357
    0.233583
     0.06401
      0.0094
   0.1980E-6
   0.7544E-5
     0.01540
     0.08500
    0.267263
    0.521644
    0.521626
    0.267252
     0.08502
     0.01542
   0.7544E-5
     0.01540
     0.01539
    0.107296
    0.293437
    0.478583
    0.565034
    0.478573
    0.293392
    0.107319
     0.01540
     0.08609
      0.0062
     0.08607
    0.291592
    0.395418
    0.280437
    0.280424
    0.395392
    0.291520
     0.08609
    0.268377
     0.03405
     0.03405
    0.268418
    0.468607
    0.276080
   0.2779E-4
    0.276048
    0.468536
    0.268377
    0.514398
    0.186016
      0.0097
    0.185936
    0.514616
    0.550358
    0.279466
    0.279448
    0.550277
    0.514398
    0.514084
    0.318896
     0.05691
     0.05681
    0.318833
    0.514263
    0.468356
    0.394040
    0.468343
    0.514084
    0.268334
    0.186873
     0.05681
   0.1061E-3
     0.05661
    0.186790
    0.268352
    0.289540
    0.289537
    0.268334
     0.08723
     0.03434
      0.0089
     0.05666
     0.05655
      0.0088
     0.03433
     0.08723
    0.108423
     0.08723
     0.01582
      0.0063
     0.03355
    0.182261
    0.316210
    0.182232
     0.03353
      0.0063
     0.01582
     0.01582
   0.7544E-5
     0.01540
     0.08500
    0.267263
    0.521644
    0.521626
    0.267252
     0.08502
     0.01542
   0.7544E-5
   0.1475E-4
     0.01128
     0.04014
     0.08150
    0.135618
    0.135616
     0.08153
     0.04015
     0.01127
   0.1475E-4
     0.01123
     0.01124
     0.05595
    0.113848
    0.143514
    0.149068
    0.143523
    0.113844
     0.05594
     0.01123
     0.04005
      0.0071
     0.04003
    0.114669
    0.137939
     0.07903
     0.07902
    0.137903
    0.114670
     0.04005
     0.08542
     0.01264
     0.01265
     0.08532
    0.147340
     0.07828
   0.8537E-5
     0.07826
    0.147379
     0.08542
    0.140608
     0.04813
   0.7536E-3
     0.04810
    0.140539
    0.152973
     0.07814
     0.07813
    0.152991
    0.140608
    0.141262
     0.08000
     0.01330
     0.01331
     0.07997
    0.141217
    0.147348
    0.137639
    0.147356
    0.141262
     0.08697
     0.04852
     0.01324
   0.5109E-5
     0.01326
     0.04850
     0.08694
    0.115272
    0.115263
     0.08697
     0.04048
     0.01184
      0.0010
     0.01371
     0.01372
      0.0011
     0.01184
     0.04048
     0.05590
     0.04048
     0.01082
      0.0072
     0.01337
     0.04783
     0.07983
     0.04783
     0.01337
      0.0072
     0.01081
     0.01082
   0.1475E-4
     0.01128
     0.04014
     0.08150
    0.135618
    0.135616
     0.08153
     0.04015
     0.01127
   0.1475E-4
   0.6844E-5
      0.0055
     0.01699
     0.02292
     0.02035
     0.02034
     0.02290
     0.01699
      0.0055
   0.6844E-5
      0.0054
      0.0054
     0.02141
     0.03176
     0.02524
     0.01930
     0.02524
     0.03177
     0.02142
      0.0054
     0.01701
      0.0056
     0.01701
     0.03163
     0.02670
     0.01162
     0.01163
     0.02672
     0.03162
     0.01701
     0.02165
      0.0072
      0.0072
     0.02168
     0.02513
     0.01218
   0.2344E-5
     0.01220
     0.02513
     0.02165
     0.01783
      0.0082
      0.0011
      0.0082
     0.01786
     0.01918
     0.01191
     0.01191
     0.01917
     0.01783
     0.01779
      0.0081
      0.0011
      0.0011
      0.0081
     0.01781
     0.02531
     0.02729
     0.02531
     0.01779
     0.02102
      0.0080
      0.0013
   0.2245E-4
      0.0013
      0.0080
     0.02102
     0.03135
     0.03135
     0.02102
     0.01660
      0.0071
      0.0013
   0.8877E-3
   0.8886E-3
      0.0013
      0.0071
     0.01659
     0.02116
     0.01660
      0.0059
      0.0057
      0.0071
      0.0086
      0.0092
      0.0086
      0.0071
      0.0057
      0.0059
      0.0059
   0.6844E-5
      0.0055
     0.01699
     0.02292
     0.02035
     0.02034
     0.02290
     0.01699
      0.0055
   0.6844E-5
   0.1272E-4
      0.0041
     0.01099
     0.01176
      0.0040
      0.0040
     0.01177
     0.01099
      0.0041
   0.1272E-4
      0.0043
      0.0043
      0.0066
      0.0087
      0.0044
   0.1187E-3
      0.0044
      0.0086
      0.0066
      0.0043
     0.01113
     0.01161
     0.01113
      0.0090
      0.0055
   0.7653E-3
   0.7638E-3
      0.0055
      0.0090
     0.01113
     0.01123
     0.01610
     0.01609
     0.01122
      0.0045
   0.7094E-3
   0.2407E-4
   0.7080E-3
      0.0045
     0.01123
      0.0034
      0.0096
     0.01279
      0.0096
      0.0034
   0.1570E-3
   0.8243E-3
   0.8253E-3
   0.1576E-3
      0.0034
      0.0034
      0.0039
      0.0043
      0.0043
      0.0039
      0.0034
      0.0043
      0.0049
      0.0043
      0.0034
     0.01152
      0.0099
      0.0040
   0.4608E-4
      0.0040
      0.0099
     0.01153
      0.0087
      0.0087
     0.01152
     0.01122
     0.01651
     0.01304
      0.0038
      0.0038
     0.01304
     0.01653
     0.01123
      0.0067
     0.01122
      0.0040
     0.01144
     0.01658
     0.01056
      0.0048
     0.01056
     0.01659
     0.01144
      0.0040
      0.0040
   0.1272E-4
      0.0041
     0.01099
     0.01176
      0.0040
      0.0040
     0.01177
     0.01099
      0.0041
   0.1272E-4
   0.1329E-4
      0.0081
     0.02672
     0.04208
     0.05344
     0.05344
     0.04208
     0.02672
      0.0081
   0.1329E-4
      0.0082
      0.0082
      0.0064
      0.0093
     0.02185
     0.03252
     0.02185
      0.0093
      0.0064
      0.0082
     0.02595
     0.03529
     0.02594
      0.0081
   0.1012E-3
      0.0048
      0.0048
   0.9022E-4
      0.0081
     0.02595
     0.04205
     0.05967
     0.05967
     0.04204
     0.02048
      0.0055
   0.5580E-4
      0.0055
     0.02048
     0.04205
     0.05355
     0.06162
     0.06065
     0.06162
     0.05355
     0.03058
      0.0054
      0.0054
     0.03057
     0.05355
     0.05335
     0.05779
     0.03170
     0.03170
     0.05778
     0.05334
     0.02077
   0.7300E-4
     0.02075
     0.05335
     0.04204
     0.06106
     0.03292
   0.4863E-4
     0.03291
     0.06103
     0.04204
      0.0088
      0.0088
     0.04204
     0.02637
     0.05919
     0.05965
     0.03212
     0.03211
     0.05963
     0.05918
     0.02637
      0.0063
     0.02637
      0.0082
     0.03598
     0.05880
     0.05794
     0.05355
     0.05793
     0.05879
     0.03598
      0.0082
      0.0082
   0.1329E-4
      0.0081
     0.02672
     0.04208
     0.05344
     0.05344
     0.04208
     0.02672
      0.0081
   0.1329E-4
   0.1512E-4
     0.01383
     0.06050
    0.163019
    0.310326
    0.310337
    0.162988
     0.06047
     0.01383
   0.1512E-4
     0.01366
     0.01365
      0.0067
     0.02102
    0.101261
    0.175210
    0.101294
     0.02102
      0.0067
     0.01366
     0.06286
     0.08367
     0.06286
     0.02085
      0.0038
     0.02994
     0.02996
      0.0038
     0.02086
     0.06286
    0.170882
    0.203746
    0.203756
    0.170842
    0.105971
     0.02825
   0.1104E-3
     0.02828
    0.106066
    0.170882
    0.313019
    0.296313
    0.259606
    0.296315
    0.313047
    0.178640
     0.02867
     0.02869
    0.178725
    0.313019
    0.312493
    0.323221
    0.153541
    0.153552
    0.323274
    0.312513
    0.104552
      0.0039
    0.104650
    0.312493
    0.168894
    0.296920
    0.149718
   0.1976E-4
    0.149764
    0.296958
    0.168777
     0.02100
     0.02100
    0.168894
     0.06139
    0.204795
    0.261259
    0.154581
    0.154605
    0.261350
    0.204827
     0.06135
      0.0066
     0.06139
     0.01366
     0.08245
    0.204940
    0.301625
    0.333328
    0.301626
    0.204959
     0.08243
     0.01366
     0.01366
   0.1512E-4
     0.01383
     0.06050
    0.163019
    0.310326
    0.310337
    0.162988
     0.06047
     0.01383
   0.1512E-4
   0.8264E-6
     0.01437
     0.09199
    0.309188
    0.616250
    0.616252
    0.309238
     0.09202
     0.01436
   0.8264E-6
     0.01475
     0.01476
      0.0052
     0.04229
    0.254083
    0.451257
    0.254010
     0.04228
      0.0052
     0.01475
     0.09158
    0.106712
     0.09159
     0.04192
     0.01720
    0.102455
    0.102630
     0.01728
     0.04188
     0.09158
    0.302678
    0.302059
    0.302062
    0.302785
    0.252546
    0.106194
   0.4110E-4
    0.106454
    0.252436
    0.302678
    0.609440
    0.594666
    0.510416
    0.594678
    0.609591
    0.447895
    0.105172
    0.105285
    0.447767
    0.609440
    0.609916
    0.810546
    0.541158
    0.541184
    0.810484
    0.610095
    0.252933
     0.01790
    0.252851
    0.609916
    0.304120
    0.595233
    0.548175
   0.2900E-4
    0.548057
    0.595120
    0.304346
     0.04215
     0.04210
    0.304120
     0.09178
    0.302421
    0.513149
    0.539720
    0.539618
    0.512923
    0.302460
     0.09182
      0.0051
     0.09178
     0.01452
    0.106983
    0.304313
    0.593623
    0.798991
    0.593578
    0.304345
    0.106992
     0.01452
     0.01452
   0.8264E-6
     0.01437
     0.09199
    0.309188
    0.616250
    0.616252
    0.309238
     0.09202
     0.01436
   0.8264E-6
   0.2178E-6
      0.0031
     0.02155
     0.08642
    0.219570
    0.219562
     0.08642
     0.02156
      0.0031
   0.2178E-6
      0.0031
      0.0031
   0.9671E-3
     0.01313
    0.109404
    0.223939
    0.109368
     0.01313
   0.9646E-3
      0.0031
     0.02118
     0.02287
     0.02118
     0.01293
     0.01203
     0.09049
     0.09068
     0.01214
     0.01293
     0.02118
     0.08633
     0.08127
     0.08127
     0.08636
    0.108114
     0.09057
   0.7183E-4
     0.09062
    0.108042
     0.08633
    0.221395
    0.297348
    0.305073
    0.297384
    0.221335
    0.221634
     0.09036
     0.09025
    0.221473
    0.221395
    0.221300
    0.555061
    0.687163
    0.687371
    0.555135
    0.221221
    0.108242
     0.01177
    0.108188
    0.221300
     0.08647
    0.298199
    0.690479
   0.1499E-3
    0.690821
    0.298104
     0.08652
     0.01301
     0.01301
     0.08647
     0.02133
     0.08067
    0.307252
    0.689562
    0.689621
    0.307047
     0.08064
     0.02134
   0.9645E-3
     0.02133
      0.0031
     0.02286
     0.08009
    0.294990
    0.551878
    0.294914
     0.08007
     0.02287
      0.0031
      0.0031
   0.2178E-6
      0.0031
     0.02155
     0.08642
    0.219570
    0.219562
     0.08642
     0.02156
      0.0031
   0.2178E-6
   0.141E-11
   0.9202E-6
   0.4896E-4
   0.6734E-3
      0.0033
      0.0033
   0.6734E-3
   0.4896E-4
   0.9201E-6
   0.141E-11
   0.9201E-6
   0.9199E-6
   0.2846E-5
   0.4500E-4
   0.3531E-3
   0.7388E-3
   0.3531E-3
   0.4500E-4
   0.2846E-5
   0.9201E-6
   0.4899E-4
   0.4793E-4
   0.4899E-4
   0.4504E-4
   0.6027E-4
   0.3455E-4
   0.3455E-4
   0.6027E-4