
     Program PWSCF v.6.5 starts on 17May2021 at 16:53:11 

     This program is part of the open-source Quantum ESPRESSO suite
     for quantum simulation of materials; please cite
         "P. Giannozzi et al., J. Phys.:Condens. Matter 21 395502 (2009);
         "P. Giannozzi et al., J. Phys.:Condens. Matter 29 465901 (2017);
          URL http://www.quantum-espresso.org", 
     in publications or presentations arising from this work. More details at
     http://www.quantum-espresso.org/quote

     Parallel version (MPI), running on     1 processors

     MPI processes distributed on     1 nodes
     Waiting for input...
     Reading input from standard input

     Current dimensions of program PWSCF are:
     Max number of different atomic species (ntypx) = 10
     Max number of k-points (npk) =  40000
     Max angular momentum in pseudopotentials (lmaxx) =  3

     Atomic positions and unit cell read from directory:
     ./NiBr2.save/                                                                                                                                                                                                                                                   


     Subspace diagonalization in iterative solution of the eigenvalue problem:
     a serial algorithm will be used


     G-vector sticks info
     --------------------
     sticks:   dense  smooth     PW     G-vecs:    dense   smooth      PW
     Sum         931     931    265                82711    82711   12671



     bravais-lattice index     =            4
     lattice parameter (alat)  =       6.9451  a.u.
     unit-cell volume          =    1044.3080 (a.u.)^3
     number of atoms/cell      =            3
     number of atomic types    =            2
     number of electrons       =        32.00
     number of Kohn-Sham states=           30
     kinetic-energy cutoff     =      70.0000  Ry
     charge density cutoff     =     280.0000  Ry
     Exchange-correlation= PBE
                           (   1   4   3   4   0   0   0)

     celldm(1)=   6.945108  celldm(2)=   0.000000  celldm(3)=   3.599656
     celldm(4)=   0.000000  celldm(5)=   0.000000  celldm(6)=   0.000000

     crystal axes: (cart. coord. in units of alat)
               a(1) = (   1.000000   0.000000   0.000000 )  
               a(2) = (  -0.500000   0.866025   0.000000 )  
               a(3) = (   0.000000   0.000000   3.599656 )  

     reciprocal axes: (cart. coord. in units 2 pi/alat)
               b(1) = (  1.000000  0.577350 -0.000000 )  
               b(2) = (  0.000000  1.154701  0.000000 )  
               b(3) = (  0.000000 -0.000000  0.277804 )  


     PseudoPot. # 1 for Ni read from file:
     ../../pseudo/Ni.upf
     MD5 check sum: 14a7e289c5fff9cacaba393040e62f02
     Pseudo is Norm-conserving + core correction, Zval = 18.0
     Generated using ONCVPSP code by D. R. Hamann
     Using radial grid of 1372 points,  6 beta functions with: 
                l(1) =   0
                l(2) =   0
                l(3) =   1
                l(4) =   1
                l(5) =   2
                l(6) =   2

     PseudoPot. # 2 for Br read from file:
     ../../pseudo/Br.upf
     MD5 check sum: 41f672ce76ec6f6480a05aabe46aac99
     Pseudo is Norm-conserving + core correction, Zval =  7.0
     Generated using ONCVPSP code by D. R. Hamann
     Using radial grid of 1110 points,  6 beta functions with: 
                l(1) =   0
                l(2) =   0
                l(3) =   1
                l(4) =   1
                l(5) =   2
                l(6) =   2

     atomic species   valence    mass     pseudopotential
        Ni            18.00    58.69340     Ni( 1.00)
        Br             7.00    79.90400     Br( 1.00)

     Starting magnetic structure 
     atomic species   magnetization
        Ni           1.000
        Br           0.000

     12 Sym. Ops., with inversion, found


                                    s                        frac. trans.

      isym =  1     identity                                     

 cryst.   s( 1) = (     1          0          0      )
                  (     0          1          0      )
                  (     0          0          1      )

 cart.    s( 1) = (  1.0000000  0.0000000  0.0000000 )
                  (  0.0000000  1.0000000  0.0000000 )
                  (  0.0000000  0.0000000  1.0000000 )


      isym =  2     180 deg rotation - cart. axis [1,0,0]        

 cryst.   s( 2) = (     1          0          0      )
                  (    -1         -1          0      )
                  (     0          0         -1      )

 cart.    s( 2) = (  1.0000000  0.0000000  0.0000000 )
                  (  0.0000000 -1.0000000  0.0000000 )
                  (  0.0000000  0.0000000 -1.0000000 )


      isym =  3     120 deg rotation - cryst. axis [0,0,1]       

 cryst.   s( 3) = (     0          1          0      )
                  (    -1         -1          0      )
                  (     0          0          1      )

 cart.    s( 3) = ( -0.5000000 -0.8660254  0.0000000 )
                  (  0.8660254 -0.5000000  0.0000000 )
                  (  0.0000000  0.0000000  1.0000000 )


      isym =  4     120 deg rotation - cryst. axis [0,0,-1]      

 cryst.   s( 4) = (    -1         -1          0      )
                  (     1          0          0      )
                  (     0          0          1      )

 cart.    s( 4) = ( -0.5000000  0.8660254  0.0000000 )
                  ( -0.8660254 -0.5000000  0.0000000 )
                  (  0.0000000  0.0000000  1.0000000 )


      isym =  5     180 deg rotation - cryst. axis [0,1,0]       

 cryst.   s( 5) = (    -1         -1          0      )
                  (     0          1          0      )
                  (     0          0         -1      )

 cart.    s( 5) = ( -0.5000000 -0.8660254  0.0000000 )
                  ( -0.8660254  0.5000000  0.0000000 )
                  (  0.0000000  0.0000000 -1.0000000 )


      isym =  6     180 deg rotation - cryst. axis [1,1,0]       

 cryst.   s( 6) = (     0          1          0      )
                  (     1          0          0      )
                  (     0          0         -1      )

 cart.    s( 6) = ( -0.5000000  0.8660254  0.0000000 )
                  (  0.8660254  0.5000000  0.0000000 )
                  (  0.0000000  0.0000000 -1.0000000 )


      isym =  7     inversion                                    

 cryst.   s( 7) = (    -1          0          0      )
                  (     0         -1          0      )
                  (     0          0         -1      )

 cart.    s( 7) = ( -1.0000000  0.0000000  0.0000000 )
                  (  0.0000000 -1.0000000  0.0000000 )
                  (  0.0000000  0.0000000 -1.0000000 )


      isym =  8     inv. 180 deg rotation - cart. axis [1,0,0]   

 cryst.   s( 8) = (    -1          0          0      )
                  (     1          1          0      )
                  (     0          0          1      )

 cart.    s( 8) = ( -1.0000000  0.0000000  0.0000000 )
                  (  0.0000000  1.0000000  0.0000000 )
                  (  0.0000000  0.0000000  1.0000000 )


      isym =  9     inv. 120 deg rotation - cryst. axis [0,0,1]  

 cryst.   s( 9) = (     0         -1          0      )
                  (     1          1          0      )
                  (     0          0         -1      )

 cart.    s( 9) = (  0.5000000  0.8660254  0.0000000 )
                  ( -0.8660254  0.5000000  0.0000000 )
                  (  0.0000000  0.0000000 -1.0000000 )


      isym = 10     inv. 120 deg rotation - cryst. axis [0,0,-1] 

 cryst.   s(10) = (     1          1          0      )
                  (    -1          0          0      )
                  (     0          0         -1      )

 cart.    s(10) = (  0.5000000 -0.8660254  0.0000000 )
                  (  0.8660254  0.5000000  0.0000000 )
                  (  0.0000000  0.0000000 -1.0000000 )


      isym = 11     inv. 180 deg rotation - cryst. axis [0,1,0]  

 cryst.   s(11) = (     1          1          0      )
                  (     0         -1          0      )
                  (     0          0          1      )

 cart.    s(11) = (  0.5000000  0.8660254  0.0000000 )
                  (  0.8660254 -0.5000000  0.0000000 )
                  (  0.0000000  0.0000000  1.0000000 )


      isym = 12     inv. 180 deg rotation - cryst. axis [1,1,0]  

 cryst.   s(12) = (     0         -1          0      )
                  (    -1          0          0      )
                  (     0          0          1      )

 cart.    s(12) = (  0.5000000 -0.8660254  0.0000000 )
                  ( -0.8660254 -0.5000000  0.0000000 )
                  (  0.0000000  0.0000000  1.0000000 )


     point group D_3d (-3m) 
     there are  6 classes
     the character table:

       E     2C3   3C2'  i     2S6   3s_d 
A_1g   1.00  1.00  1.00  1.00  1.00  1.00
A_2g   1.00  1.00 -1.00  1.00  1.00 -1.00
E_g    2.00 -1.00  0.00  2.00 -1.00  0.00
A_1u   1.00  1.00  1.00 -1.00 -1.00 -1.00
A_2u   1.00  1.00 -1.00 -1.00 -1.00  1.00
E_u    2.00 -1.00  0.00 -2.00  1.00  0.00

     the symmetry operations in each class and the name of the first element:

     E        1
          identity                                               
     2C3      3    4
          120 deg rotation - cryst. axis [0,0,1]                 
     3C2'     2    5    6
          180 deg rotation - cart. axis [1,0,0]                  
     i        7
          inversion                                              
     2S6      9   10
          inv. 120 deg rotation - cryst. axis [0,0,1]            
     3s_d     8   11   12
          inv. 180 deg rotation - cart. axis [1,0,0]             

   Cartesian axes

     site n.     atom                  positions (alat units)
         1           Ni  tau(   1) = (   0.0000000   0.0000000   0.0000000  )
         2           Br  tau(   2) = (   0.5000000   0.2886751   0.3739641  )
         3           Br  tau(   3) = (  -0.0000000   0.5773503  -0.3739641  )

   Crystallographic axes

     site n.     atom                  positions (cryst. coord.)
         1           Ni  tau(   1) = (  0.0000000  0.0000000  0.0000000  )
         2           Br  tau(   2) = (  0.6666667  0.3333333  0.1038888  )
         3           Br  tau(   3) = (  0.3333333  0.6666667 -0.1038888  )

     number of k points=     3  Gaussian smearing, width (Ry)=  0.0050
                       cart. coord. in units 2pi/alat
        k(    1) = (   0.0000000   0.0000000   0.0000000), wk =   0.1111111
        k(    2) = (   0.0000000   0.3849002   0.0000000), wk =   0.6666667
        k(    3) = (   0.3333333   0.5773503   0.0000000), wk =   0.2222222

                       cryst. coord.
        k(    1) = (   0.0000000   0.0000000   0.0000000), wk =   0.1111111
        k(    2) = (   0.0000000   0.3333333   0.0000000), wk =   0.6666667
        k(    3) = (   0.3333333   0.3333333   0.0000000), wk =   0.2222222

     Dense  grid:    82711 G-vectors     FFT dimensions: (  40,  40, 135)

     Dynamical RAM for                 wfc:       4.73 MB

     Dynamical RAM for     wfc (w. buffer):       4.73 MB

     Dynamical RAM for           str. fact:       2.52 MB

     Dynamical RAM for           local pot:       0.00 MB

     Dynamical RAM for          nlocal pot:       8.51 MB

     Dynamical RAM for                qrad:       2.97 MB

     Dynamical RAM for          rho,v,vnew:      17.46 MB

     Dynamical RAM for           G-vectors:       5.36 MB

     Dynamical RAM for          h,s,v(r/c):       0.66 MB

     Dynamical RAM for          <psi|beta>:       0.02 MB

     Dynamical RAM for                 psi:      18.91 MB

     Dynamical RAM for                hpsi:      18.91 MB

     Dynamical RAM for      wfcinit/wfcrot:       9.48 MB

     Estimated static dynamical RAM per process >      55.23 MB

     Estimated max dynamical RAM per process >      93.73 MB
     Generating pointlists ...
     new r_m :   0.2838 (alat units)  1.9707 (a.u.) for type    1
     new r_m :   0.2838 (alat units)  1.9707 (a.u.) for type    2

     The potential is recalculated from file :
     ./NiBr2.save/charge-density

     Starting wfcs are   18 randomized atomic wfcs +   12 random wfcs

     Band Structure Calculation
     Davidson diagonalization with overlap

     Computing kpt #:     1  of     6
     total cpu time spent up to now is        4.9 secs

     Computing kpt #:     2  of     6
     total cpu time spent up to now is        9.3 secs

     Computing kpt #:     3  of     6
     total cpu time spent up to now is       13.8 secs

     Computing kpt #:     4  of     6
     total cpu time spent up to now is       19.0 secs

     Computing kpt #:     5  of     6
     total cpu time spent up to now is       23.0 secs

     Computing kpt #:     6  of     6
     total cpu time spent up to now is       27.8 secs

     ethr =  3.13E-10,  avg # of iterations = 26.2

     total cpu time spent up to now is       27.8 secs

     End of band structure calculation

 ------ SPIN UP ------------


          k = 0.0000 0.0000 0.0000 ( 10351 PWs)   bands (ev):

  -104.6492 -65.0153 -65.0153 -64.9734 -16.1469 -15.3110  -5.4276  -4.5655
    -4.5655  -2.6056  -2.6056  -2.4136  -2.1307  -1.8780  -1.8780  -0.6239
    -0.6239   3.4569   4.7262   5.1310   5.3728   7.5683   7.5683   7.7072
     9.7159  10.3179  10.3179  10.7456  12.4383  13.0002

     occupation numbers 
     1.0000   1.0000   1.0000   1.0000   1.0000   1.0000   1.0000   1.0000
     1.0000   1.0000   1.0000   1.0000   1.0000   1.0000   1.0000   1.0000
     1.0000   0.0000   0.0000   0.0000   0.0000   0.0000   0.0000   0.0000
     0.0000   0.0000   0.0000   0.0000   0.0000   0.0000

          k = 0.0000 0.3849 0.0000 ( 10350 PWs)   bands (ev):

  -104.6493 -65.0176 -65.0152 -64.9746 -15.5720 -15.1261  -5.5185  -5.0562
    -4.4630  -4.2322  -3.1827  -2.9356  -2.5426  -2.1525  -2.0164  -1.2178
    -0.8076   4.2225   5.4998   6.2755   6.6422   7.8844   8.6483   8.7228
     8.8885   9.6930  10.6126  11.2472  11.9983  12.1138

     occupation numbers 
     1.0000   1.0000   1.0000   1.0000   1.0000   1.0000   1.0000   1.0000
     1.0000   1.0000   1.0000   1.0000   1.0000   1.0000   1.0000   1.0000
     1.0000   0.0000   0.0000   0.0000   0.0000   0.0000   0.0000   0.0000
     0.0000   0.0000   0.0000   0.0000   0.0000   0.0000

          k = 0.3333 0.5774 0.0000 ( 10281 PWs)   bands (ev):

  -104.6488 -65.0148 -65.0148 -64.9731 -15.1344 -15.1344  -5.4971  -5.0352
    -5.0352  -4.0630  -4.0630  -3.8500  -2.3696  -2.0816  -2.0816  -1.2751
    -1.2751   4.8779   7.1707   7.1707   8.2720   8.5315   8.7775   8.7775
     9.5248  10.0148  10.0148  10.2839  10.9512  10.9512

     occupation numbers 
     1.0000   1.0000   1.0000   1.0000   1.0000   1.0000   1.0000   1.0000
     1.0000   1.0000   1.0000   1.0000   1.0000   1.0000   1.0000   1.0000
     1.0000   0.0000   0.0000   0.0000   0.0000   0.0000   0.0000   0.0000
     0.0000   0.0000   0.0000   0.0000   0.0000   0.0000

 ------ SPIN DOWN ----------


          k = 0.0000 0.0000 0.0000 ( 10351 PWs)   bands (ev):

  -103.1495 -63.3813 -63.3813 -63.3610 -15.8882 -15.0260  -5.1869  -3.3609
    -3.3609  -2.1504  -1.6049  -1.6049  -1.5846  -1.5846  -1.3164   0.8069
     0.8069   3.6049   4.8016   5.2328   5.4640   7.6955   7.6955   7.8138
     9.8043  10.5259  10.5259  10.9523  12.5864  13.2429

     occupation numbers 
     1.0000   1.0000   1.0000   1.0000   1.0000   1.0000   1.0000   1.0000
     1.0000   1.0000   1.0000   1.0000   1.0000   1.0000   1.0000   0.0000
     0.0000   0.0000   0.0000   0.0000   0.0000   0.0000   0.0000   0.0000
     0.0000   0.0000   0.0000   0.0000   0.0000   0.0000

          k = 0.0000 0.3849 0.0000 ( 10350 PWs)   bands (ev):

  -103.1496 -63.3838 -63.3812 -63.3621 -15.2983 -14.8290  -5.3034  -4.6690
    -3.6305  -3.2665  -2.7775  -2.3935  -1.5516  -1.3027  -1.1852   0.3792
     0.6885   4.4436   5.6213   6.3809   6.7531   8.0363   8.7774   8.8780
     9.0084   9.8490  10.7611  11.3463  12.0773  12.3135

     occupation numbers 
     1.0000   1.0000   1.0000   1.0000   1.0000   1.0000   1.0000   1.0000
     1.0000   1.0000   1.0000   1.0000   1.0000   1.0000   1.0000   0.0000
     0.0000   0.0000   0.0000   0.0000   0.0000   0.0000   0.0000   0.0000
     0.0000   0.0000   0.0000   0.0000   0.0000   0.0000

          k = 0.3333 0.5774 0.0000 ( 10281 PWs)   bands (ev):

  -103.1492 -63.3807 -63.3807 -63.3605 -14.8407 -14.8407  -5.3155  -4.7021
    -4.7021  -3.6336  -3.0045  -3.0045  -1.5040  -1.2454  -1.2454   0.4131
     0.4131   5.1398   7.3124   7.3124   8.4274   8.6478   8.9167   8.9167
     9.6853  10.1195  10.1195  10.3515  11.0600  11.0600

     occupation numbers 
     1.0000   1.0000   1.0000   1.0000   1.0000   1.0000   1.0000   1.0000
     1.0000   1.0000   1.0000   1.0000   1.0000   1.0000   1.0000   0.0000
     0.0000   0.0000   0.0000   0.0000   0.0000   0.0000   0.0000   0.0000
     0.0000   0.0000   0.0000   0.0000   0.0000   0.0000

     the Fermi energy is    -0.0069 ev

     Writing output data file ./NiBr2.save/

     init_run     :      0.44s CPU      0.48s WALL (       1 calls)
     electrons    :     27.03s CPU     27.15s WALL (       1 calls)

     Called by init_run:
     wfcinit      :      0.00s CPU      0.00s WALL (       1 calls)
     wfcinit:atom :      0.02s CPU      0.02s WALL (       6 calls)
     wfcinit:wfcr :      1.32s CPU      1.34s WALL (       6 calls)
     potinit      :      0.18s CPU      0.21s WALL (       1 calls)
     hinit0       :      0.22s CPU      0.22s WALL (       1 calls)

     Called by electrons:
     c_bands      :     27.03s CPU     27.15s WALL (       1 calls)
     v_of_rho     :      0.17s CPU      0.20s WALL (       1 calls)
     v_h          :      0.00s CPU      0.00s WALL (       1 calls)
     v_xc         :      0.17s CPU      0.19s WALL (       1 calls)

     Called by c_bands:
     init_us_2    :      0.01s CPU      0.02s WALL (       6 calls)
     cegterg      :     25.57s CPU     25.65s WALL (      12 calls)

     Called by sum_band:

     Called by *egterg:
     h_psi        :     15.37s CPU     15.43s WALL (     175 calls)
     g_psi        :      0.07s CPU      0.07s WALL (     157 calls)
     cdiaghg      :      0.38s CPU      0.38s WALL (     163 calls)
     cegterg:over :      4.48s CPU      4.48s WALL (     157 calls)
     cegterg:upda :      3.53s CPU      3.56s WALL (     157 calls)
     cegterg:last :      2.42s CPU      2.42s WALL (      30 calls)

     Called by h_psi:
     h_psi:calbec :      2.18s CPU      2.18s WALL (     175 calls)
     vloc_psi     :     10.99s CPU     11.02s WALL (     175 calls)
     add_vuspsi   :      2.12s CPU      2.12s WALL (     175 calls)

     General routines
     calbec       :      2.18s CPU      2.18s WALL (     175 calls)
     fft          :      0.06s CPU      0.07s WALL (      19 calls)
     fftw         :      9.95s CPU      9.98s WALL (    5050 calls)
     davcio       :      0.00s CPU      0.02s WALL (      12 calls)

     Parallel routines

     PWSCF        :     27.66s CPU     27.84s WALL


   This run was terminated on:  16:53:39  17May2021            

=------------------------------------------------------------------------------=
   JOB DONE.
=------------------------------------------------------------------------------=
