
     Program PWSCF v.6.5 starts on 13May2021 at 22:43:43 

     This program is part of the open-source Quantum ESPRESSO suite
     for quantum simulation of materials; please cite
         "P. Giannozzi et al., J. Phys.:Condens. Matter 21 395502 (2009);
         "P. Giannozzi et al., J. Phys.:Condens. Matter 29 465901 (2017);
          URL http://www.quantum-espresso.org", 
     in publications or presentations arising from this work. More details at
     http://www.quantum-espresso.org/quote

     Parallel version (MPI), running on     1 processors

     MPI processes distributed on     1 nodes
     Waiting for input...
     Reading input from standard input

     Current dimensions of program PWSCF are:
     Max number of different atomic species (ntypx) = 10
     Max number of k-points (npk) =  40000
     Max angular momentum in pseudopotentials (lmaxx) =  3

     Atomic positions and unit cell read from directory:
     ./NiBr2.save/                                                                                                                                                                                                                                                   


     Subspace diagonalization in iterative solution of the eigenvalue problem:
     a serial algorithm will be used


     G-vector sticks info
     --------------------
     sticks:   dense  smooth     PW     G-vecs:    dense   smooth      PW
     Sum         931     931    265                82711    82711   12671



     bravais-lattice index     =            4
     lattice parameter (alat)  =       6.9451  a.u.
     unit-cell volume          =    1044.3080 (a.u.)^3
     number of atoms/cell      =            3
     number of atomic types    =            2
     number of electrons       =        32.00
     number of Kohn-Sham states=           60
     kinetic-energy cutoff     =      70.0000  Ry
     charge density cutoff     =     280.0000  Ry
     Exchange-correlation= PBE
                           (   1   4   3   4   0   0   0)

     celldm(1)=   6.945108  celldm(2)=   0.000000  celldm(3)=   3.599656
     celldm(4)=   0.000000  celldm(5)=   0.000000  celldm(6)=   0.000000

     crystal axes: (cart. coord. in units of alat)
               a(1) = (   1.000000   0.000000   0.000000 )  
               a(2) = (  -0.500000   0.866025   0.000000 )  
               a(3) = (   0.000000   0.000000   3.599656 )  

     reciprocal axes: (cart. coord. in units 2 pi/alat)
               b(1) = (  1.000000  0.577350 -0.000000 )  
               b(2) = (  0.000000  1.154701  0.000000 )  
               b(3) = (  0.000000 -0.000000  0.277804 )  


     PseudoPot. # 1 for Ni read from file:
     ../../pseudo/Ni.upf
     MD5 check sum: 14a7e289c5fff9cacaba393040e62f02
     Pseudo is Norm-conserving + core correction, Zval = 18.0
     Generated using ONCVPSP code by D. R. Hamann
     Using radial grid of 1372 points,  6 beta functions with: 
                l(1) =   0
                l(2) =   0
                l(3) =   1
                l(4) =   1
                l(5) =   2
                l(6) =   2

     PseudoPot. # 2 for Br read from file:
     ../../pseudo/Br.upf
     MD5 check sum: 41f672ce76ec6f6480a05aabe46aac99
     Pseudo is Norm-conserving + core correction, Zval =  7.0
     Generated using ONCVPSP code by D. R. Hamann
     Using radial grid of 1110 points,  6 beta functions with: 
                l(1) =   0
                l(2) =   0
                l(3) =   1
                l(4) =   1
                l(5) =   2
                l(6) =   2

     atomic species   valence    mass     pseudopotential
        Ni            18.00    58.69340     Ni( 1.00)
        Br             7.00    79.90400     Br( 1.00)

     Starting magnetic structure 
     atomic species   magnetization
        Ni           1.000
        Br           0.000

     12 Sym. Ops., with inversion, found


                                    s                        frac. trans.

      isym =  1     identity                                     

 cryst.   s( 1) = (     1          0          0      )
                  (     0          1          0      )
                  (     0          0          1      )

 cart.    s( 1) = (  1.0000000  0.0000000  0.0000000 )
                  (  0.0000000  1.0000000  0.0000000 )
                  (  0.0000000  0.0000000  1.0000000 )


      isym =  2     180 deg rotation - cart. axis [1,0,0]        

 cryst.   s( 2) = (     1          0          0      )
                  (    -1         -1          0      )
                  (     0          0         -1      )

 cart.    s( 2) = (  1.0000000  0.0000000  0.0000000 )
                  (  0.0000000 -1.0000000  0.0000000 )
                  (  0.0000000  0.0000000 -1.0000000 )


      isym =  3     120 deg rotation - cryst. axis [0,0,1]       

 cryst.   s( 3) = (     0          1          0      )
                  (    -1         -1          0      )
                  (     0          0          1      )

 cart.    s( 3) = ( -0.5000000 -0.8660254  0.0000000 )
                  (  0.8660254 -0.5000000  0.0000000 )
                  (  0.0000000  0.0000000  1.0000000 )


      isym =  4     120 deg rotation - cryst. axis [0,0,-1]      

 cryst.   s( 4) = (    -1         -1          0      )
                  (     1          0          0      )
                  (     0          0          1      )

 cart.    s( 4) = ( -0.5000000  0.8660254  0.0000000 )
                  ( -0.8660254 -0.5000000  0.0000000 )
                  (  0.0000000  0.0000000  1.0000000 )


      isym =  5     180 deg rotation - cryst. axis [0,1,0]       

 cryst.   s( 5) = (    -1         -1          0      )
                  (     0          1          0      )
                  (     0          0         -1      )

 cart.    s( 5) = ( -0.5000000 -0.8660254  0.0000000 )
                  ( -0.8660254  0.5000000  0.0000000 )
                  (  0.0000000  0.0000000 -1.0000000 )


      isym =  6     180 deg rotation - cryst. axis [1,1,0]       

 cryst.   s( 6) = (     0          1          0      )
                  (     1          0          0      )
                  (     0          0         -1      )

 cart.    s( 6) = ( -0.5000000  0.8660254  0.0000000 )
                  (  0.8660254  0.5000000  0.0000000 )
                  (  0.0000000  0.0000000 -1.0000000 )


      isym =  7     inversion                                    

 cryst.   s( 7) = (    -1          0          0      )
                  (     0         -1          0      )
                  (     0          0         -1      )

 cart.    s( 7) = ( -1.0000000  0.0000000  0.0000000 )
                  (  0.0000000 -1.0000000  0.0000000 )
                  (  0.0000000  0.0000000 -1.0000000 )


      isym =  8     inv. 180 deg rotation - cart. axis [1,0,0]   

 cryst.   s( 8) = (    -1          0          0      )
                  (     1          1          0      )
                  (     0          0          1      )

 cart.    s( 8) = ( -1.0000000  0.0000000  0.0000000 )
                  (  0.0000000  1.0000000  0.0000000 )
                  (  0.0000000  0.0000000  1.0000000 )


      isym =  9     inv. 120 deg rotation - cryst. axis [0,0,1]  

 cryst.   s( 9) = (     0         -1          0      )
                  (     1          1          0      )
                  (     0          0         -1      )

 cart.    s( 9) = (  0.5000000  0.8660254  0.0000000 )
                  ( -0.8660254  0.5000000  0.0000000 )
                  (  0.0000000  0.0000000 -1.0000000 )


      isym = 10     inv. 120 deg rotation - cryst. axis [0,0,-1] 

 cryst.   s(10) = (     1          1          0      )
                  (    -1          0          0      )
                  (     0          0         -1      )

 cart.    s(10) = (  0.5000000 -0.8660254  0.0000000 )
                  (  0.8660254  0.5000000  0.0000000 )
                  (  0.0000000  0.0000000 -1.0000000 )


      isym = 11     inv. 180 deg rotation - cryst. axis [0,1,0]  

 cryst.   s(11) = (     1          1          0      )
                  (     0         -1          0      )
                  (     0          0          1      )

 cart.    s(11) = (  0.5000000  0.8660254  0.0000000 )
                  (  0.8660254 -0.5000000  0.0000000 )
                  (  0.0000000  0.0000000  1.0000000 )


      isym = 12     inv. 180 deg rotation - cryst. axis [1,1,0]  

 cryst.   s(12) = (     0         -1          0      )
                  (    -1          0          0      )
                  (     0          0          1      )

 cart.    s(12) = (  0.5000000 -0.8660254  0.0000000 )
                  ( -0.8660254 -0.5000000  0.0000000 )
                  (  0.0000000  0.0000000  1.0000000 )


     point group D_3d (-3m) 
     there are  6 classes
     the character table:

       E     2C3   3C2'  i     2S6   3s_d 
A_1g   1.00  1.00  1.00  1.00  1.00  1.00
A_2g   1.00  1.00 -1.00  1.00  1.00 -1.00
E_g    2.00 -1.00  0.00  2.00 -1.00  0.00
A_1u   1.00  1.00  1.00 -1.00 -1.00 -1.00
A_2u   1.00  1.00 -1.00 -1.00 -1.00  1.00
E_u    2.00 -1.00  0.00 -2.00  1.00  0.00

     the symmetry operations in each class and the name of the first element:

     E        1
          identity                                               
     2C3      3    4
          120 deg rotation - cryst. axis [0,0,1]                 
     3C2'     2    5    6
          180 deg rotation - cart. axis [1,0,0]                  
     i        7
          inversion                                              
     2S6      9   10
          inv. 120 deg rotation - cryst. axis [0,0,1]            
     3s_d     8   11   12
          inv. 180 deg rotation - cart. axis [1,0,0]             

   Cartesian axes

     site n.     atom                  positions (alat units)
         1           Ni  tau(   1) = (   0.0000000   0.0000000   0.0000000  )
         2           Br  tau(   2) = (   0.5000000   0.2886751   0.3739641  )
         3           Br  tau(   3) = (  -0.0000000   0.5773503  -0.3739641  )

   Crystallographic axes

     site n.     atom                  positions (cryst. coord.)
         1           Ni  tau(   1) = (  0.0000000  0.0000000  0.0000000  )
         2           Br  tau(   2) = (  0.6666667  0.3333333  0.1038888  )
         3           Br  tau(   3) = (  0.3333333  0.6666667 -0.1038888  )

     number of k points=     3  Gaussian smearing, width (Ry)=  0.0050
                       cart. coord. in units 2pi/alat
        k(    1) = (   0.0000000   0.0000000   0.0000000), wk =   0.1111111
        k(    2) = (   0.0000000   0.3849002   0.0000000), wk =   0.6666667
        k(    3) = (   0.3333333   0.5773503   0.0000000), wk =   0.2222222

                       cryst. coord.
        k(    1) = (   0.0000000   0.0000000   0.0000000), wk =   0.1111111
        k(    2) = (   0.0000000   0.3333333   0.0000000), wk =   0.6666667
        k(    3) = (   0.3333333   0.3333333   0.0000000), wk =   0.2222222

     Dense  grid:    82711 G-vectors     FFT dimensions: (  40,  40, 135)

     Dynamical RAM for                 wfc:       9.46 MB

     Dynamical RAM for     wfc (w. buffer):       9.46 MB

     Dynamical RAM for           str. fact:       2.52 MB

     Dynamical RAM for           local pot:       0.00 MB

     Dynamical RAM for          nlocal pot:       8.51 MB

     Dynamical RAM for                qrad:       2.97 MB

     Dynamical RAM for          rho,v,vnew:      17.46 MB

     Dynamical RAM for           G-vectors:       5.36 MB

     Dynamical RAM for          h,s,v(r/c):       2.64 MB

     Dynamical RAM for          <psi|beta>:       0.05 MB

     Dynamical RAM for                 psi:      37.82 MB

     Dynamical RAM for                hpsi:      37.82 MB

     Dynamical RAM for      wfcinit/wfcrot:      18.99 MB

     Estimated static dynamical RAM per process >      59.96 MB

     Estimated max dynamical RAM per process >     138.29 MB
     Generating pointlists ...
     new r_m :   0.2838 (alat units)  1.9707 (a.u.) for type    1
     new r_m :   0.2838 (alat units)  1.9707 (a.u.) for type    2

     The potential is recalculated from file :
     ./NiBr2.save/charge-density

     Starting wfcs are   18 randomized atomic wfcs +   42 random wfcs

     Band Structure Calculation
     Davidson diagonalization with overlap

     Computing kpt #:     1  of     6
     total cpu time spent up to now is       24.2 secs

     Computing kpt #:     2  of     6
     total cpu time spent up to now is       46.9 secs

     Computing kpt #:     3  of     6
     total cpu time spent up to now is       69.9 secs

     Computing kpt #:     4  of     6
     total cpu time spent up to now is       92.9 secs

     Computing kpt #:     5  of     6
     total cpu time spent up to now is      116.0 secs

     Computing kpt #:     6  of     6
     total cpu time spent up to now is      138.8 secs

     ethr =  3.13E-10,  avg # of iterations = 22.2

     total cpu time spent up to now is      138.8 secs

     End of band structure calculation

 ------ SPIN UP ------------


          k = 0.0000 0.0000 0.0000 ( 10351 PWs)   bands (ev):

  -104.6492 -65.0153 -65.0153 -64.9734 -16.1469 -15.3110  -5.4276  -4.5655
    -4.5655  -2.6056  -2.6056  -2.4136  -2.1307  -1.8780  -1.8780  -0.6239
    -0.6239   3.4569   4.7262   5.1310   5.3728   7.5683   7.5683   7.7072
     9.7159  10.3179  10.3179  10.7456  12.4383  13.0002  13.0002  13.1767
    13.8259  13.8259  14.2555  15.0749  17.1828  17.1828  18.2622  18.7045
    18.7045  18.8935  19.4589  19.4589  19.5220  19.6439  19.6439  19.9971
    20.4320  20.4538  21.4647  21.4647  21.7886  21.7886  22.0683  22.3428
    22.3428  22.5930  22.5930  22.7339

     occupation numbers 
     1.0000   1.0000   1.0000   1.0000   1.0000   1.0000   1.0000   1.0000
     1.0000   1.0000   1.0000   1.0000   1.0000   1.0000   1.0000   1.0000
     1.0000   0.0000   0.0000   0.0000   0.0000   0.0000   0.0000   0.0000
     0.0000   0.0000   0.0000   0.0000   0.0000   0.0000   0.0000   0.0000
     0.0000   0.0000   0.0000   0.0000   0.0000   0.0000   0.0000   0.0000
     0.0000   0.0000   0.0000   0.0000   0.0000   0.0000   0.0000   0.0000
     0.0000   0.0000   0.0000   0.0000   0.0000   0.0000   0.0000   0.0000
     0.0000   0.0000   0.0000   0.0000

          k = 0.0000 0.3849 0.0000 ( 10350 PWs)   bands (ev):

  -104.6493 -65.0176 -65.0152 -64.9746 -15.5720 -15.1261  -5.5185  -5.0562
    -4.4630  -4.2322  -3.1827  -2.9356  -2.5426  -2.1525  -2.0164  -1.2178
    -0.8076   4.2225   5.4998   6.2755   6.6422   7.8844   8.6483   8.7228
     8.8885   9.6930  10.6126  11.2472  11.9983  12.1138  12.7635  13.5283
    13.8177  14.4096  14.6447  14.8476  15.1144  16.2958  16.5893  17.3655
    17.9684  18.3224  18.4695  18.8514  19.3666  19.7839  20.2927  20.5109
    20.6013  21.1082  21.7032  21.8009  21.9862  22.0296  23.1787  23.5351
    23.9260  24.1530  24.1677  25.1433

     occupation numbers 
     1.0000   1.0000   1.0000   1.0000   1.0000   1.0000   1.0000   1.0000
     1.0000   1.0000   1.0000   1.0000   1.0000   1.0000   1.0000   1.0000
     1.0000   0.0000   0.0000   0.0000   0.0000   0.0000   0.0000   0.0000
     0.0000   0.0000   0.0000   0.0000   0.0000   0.0000   0.0000   0.0000
     0.0000   0.0000   0.0000   0.0000   0.0000   0.0000   0.0000   0.0000
     0.0000   0.0000   0.0000   0.0000   0.0000   0.0000   0.0000   0.0000
     0.0000   0.0000   0.0000   0.0000   0.0000   0.0000   0.0000   0.0000
     0.0000   0.0000   0.0000   0.0000

          k = 0.3333 0.5774 0.0000 ( 10281 PWs)   bands (ev):

  -104.6488 -65.0148 -65.0148 -64.9731 -15.1344 -15.1344  -5.4971  -5.0352
    -5.0352  -4.0630  -4.0630  -3.8500  -2.3696  -2.0816  -2.0816  -1.2751
    -1.2751   4.8779   7.1707   7.1707   8.2720   8.5315   8.7775   8.7775
     9.5248  10.0148  10.0148  10.2839  10.9512  10.9512  12.2724  12.2724
    12.5315  13.2047  13.4963  13.4963  16.0084  16.0084  16.9243  16.9243
    17.8092  17.9633  19.7587  20.1923  20.1923  20.5923  20.8754  20.8754
    21.8640  21.8640  21.9091  22.6290  23.7312  23.7312  24.5496  24.5496
    24.6641  24.9528  24.9528  25.0032

     occupation numbers 
     1.0000   1.0000   1.0000   1.0000   1.0000   1.0000   1.0000   1.0000
     1.0000   1.0000   1.0000   1.0000   1.0000   1.0000   1.0000   1.0000
     1.0000   0.0000   0.0000   0.0000   0.0000   0.0000   0.0000   0.0000
     0.0000   0.0000   0.0000   0.0000   0.0000   0.0000   0.0000   0.0000
     0.0000   0.0000   0.0000   0.0000   0.0000   0.0000   0.0000   0.0000
     0.0000   0.0000   0.0000   0.0000   0.0000   0.0000   0.0000   0.0000
     0.0000   0.0000   0.0000   0.0000   0.0000   0.0000   0.0000   0.0000
     0.0000   0.0000   0.0000   0.0000

 ------ SPIN DOWN ----------


          k = 0.0000 0.0000 0.0000 ( 10351 PWs)   bands (ev):

  -103.1495 -63.3813 -63.3813 -63.3610 -15.8882 -15.0260  -5.1869  -3.3609
    -3.3609  -2.1504  -1.6049  -1.6049  -1.5846  -1.5846  -1.3164   0.8069
     0.8069   3.6049   4.8016   5.2328   5.4640   7.6955   7.6955   7.8138
     9.8043  10.5259  10.5259  10.9523  12.5864  13.2429  13.3382  13.3382
    14.0297  14.0297  14.3668  15.1978  17.3437  17.3437  18.3940  18.8086
    18.8086  18.9784  19.5464  19.5464  19.5867  19.7096  19.7096  20.0803
    20.5098  20.5134  21.5685  21.5685  21.8795  21.8795  22.1471  22.4135
    22.4135  22.6999  22.6999  22.8394

     occupation numbers 
     1.0000   1.0000   1.0000   1.0000   1.0000   1.0000   1.0000   1.0000
     1.0000   1.0000   1.0000   1.0000   1.0000   1.0000   1.0000   0.0000
     0.0000   0.0000   0.0000   0.0000   0.0000   0.0000   0.0000   0.0000
     0.0000   0.0000   0.0000   0.0000   0.0000   0.0000   0.0000   0.0000
     0.0000   0.0000   0.0000   0.0000   0.0000   0.0000   0.0000   0.0000
     0.0000   0.0000   0.0000   0.0000   0.0000   0.0000   0.0000   0.0000
     0.0000   0.0000   0.0000   0.0000   0.0000   0.0000   0.0000   0.0000
     0.0000   0.0000   0.0000   0.0000

          k = 0.0000 0.3849 0.0000 ( 10350 PWs)   bands (ev):

  -103.1496 -63.3838 -63.3812 -63.3621 -15.2983 -14.8290  -5.3034  -4.6690
    -3.6305  -3.2665  -2.7775  -2.3935  -1.5516  -1.3027  -1.1852   0.3792
     0.6885   4.4436   5.6213   6.3809   6.7531   8.0363   8.7774   8.8780
     9.0084   9.8490  10.7611  11.3463  12.0773  12.3135  12.8808  13.7121
    13.9338  14.6510  14.7497  14.9578  15.2230  16.3892  16.6584  17.4640
    18.1114  18.4315  18.5829  18.9872  19.4902  19.9137  20.4358  20.6727
    20.7222  21.2667  21.8312  21.9230  22.1615  22.1652  23.3255  23.6293
    24.0611  24.2832  24.3189  25.2542

     occupation numbers 
     1.0000   1.0000   1.0000   1.0000   1.0000   1.0000   1.0000   1.0000
     1.0000   1.0000   1.0000   1.0000   1.0000   1.0000   1.0000   0.0000
     0.0000   0.0000   0.0000   0.0000   0.0000   0.0000   0.0000   0.0000
     0.0000   0.0000   0.0000   0.0000   0.0000   0.0000   0.0000   0.0000
     0.0000   0.0000   0.0000   0.0000   0.0000   0.0000   0.0000   0.0000
     0.0000   0.0000   0.0000   0.0000   0.0000   0.0000   0.0000   0.0000
     0.0000   0.0000   0.0000   0.0000   0.0000   0.0000   0.0000   0.0000
     0.0000   0.0000   0.0000   0.0000

          k = 0.3333 0.5774 0.0000 ( 10281 PWs)   bands (ev):

  -103.1492 -63.3807 -63.3807 -63.3605 -14.8407 -14.8407  -5.3155  -4.7021
    -4.7021  -3.6336  -3.0045  -3.0045  -1.5040  -1.2454  -1.2454   0.4131
     0.4131   5.1398   7.3124   7.3124   8.4274   8.6478   8.9167   8.9167
     9.6853  10.1195  10.1195  10.3515  11.0600  11.0600  12.3659  12.3659
    12.6373  13.2716  13.6564  13.6564  16.1297  16.1297  17.0717  17.0717
    17.9054  18.0380  19.9784  20.3513  20.3513  20.7833  21.0379  21.0379
    22.0457  22.0573  22.0573  22.7674  23.8599  23.8599  24.6325  24.6325
    24.7415  25.0334  25.0334  25.1025

     occupation numbers 
     1.0000   1.0000   1.0000   1.0000   1.0000   1.0000   1.0000   1.0000
     1.0000   1.0000   1.0000   1.0000   1.0000   1.0000   1.0000   0.0000
     0.0000   0.0000   0.0000   0.0000   0.0000   0.0000   0.0000   0.0000
     0.0000   0.0000   0.0000   0.0000   0.0000   0.0000   0.0000   0.0000
     0.0000   0.0000   0.0000   0.0000   0.0000   0.0000   0.0000   0.0000
     0.0000   0.0000   0.0000   0.0000   0.0000   0.0000   0.0000   0.0000
     0.0000   0.0000   0.0000   0.0000   0.0000   0.0000   0.0000   0.0000
     0.0000   0.0000   0.0000   0.0000

     the Fermi energy is    -0.0347 ev

     Writing output data file ./NiBr2.save/

     init_run     :      0.80s CPU      0.85s WALL (       1 calls)
     electrons    :    137.23s CPU    137.62s WALL (       1 calls)

     Called by init_run:
     wfcinit      :      0.00s CPU      0.00s WALL (       1 calls)
     wfcinit:atom :      0.02s CPU      0.02s WALL (       6 calls)
     wfcinit:wfcr :      5.42s CPU      5.42s WALL (       6 calls)
     potinit      :      0.33s CPU      0.36s WALL (       1 calls)
     hinit0       :      0.40s CPU      0.40s WALL (       1 calls)

     Called by electrons:
     c_bands      :    137.23s CPU    137.62s WALL (       1 calls)
     v_of_rho     :      0.31s CPU      0.34s WALL (       1 calls)
     v_h          :      0.01s CPU      0.01s WALL (       1 calls)
     v_xc         :      0.31s CPU      0.33s WALL (       1 calls)

     Called by c_bands:
     init_us_2    :      0.02s CPU      0.04s WALL (       6 calls)
     cegterg      :    131.44s CPU    131.77s WALL (      12 calls)

     Called by sum_band:

     Called by *egterg:
     h_psi        :     54.33s CPU     54.48s WALL (     151 calls)
     g_psi        :      0.24s CPU      0.24s WALL (     133 calls)
     cdiaghg      :      3.77s CPU      3.77s WALL (     139 calls)
     cegterg:over :     33.85s CPU     33.87s WALL (     133 calls)
     cegterg:upda :     24.39s CPU     24.47s WALL (     133 calls)
     cegterg:last :     16.04s CPU     16.07s WALL (      30 calls)

     Called by h_psi:
     h_psi:calbec :      7.23s CPU      7.23s WALL (     151 calls)
     vloc_psi     :     39.99s CPU     40.04s WALL (     151 calls)
     add_vuspsi   :      6.91s CPU      6.92s WALL (     151 calls)

     General routines
     calbec       :      7.23s CPU      7.23s WALL (     151 calls)
     fft          :      0.12s CPU      0.12s WALL (      19 calls)
     fftw         :     36.80s CPU     36.85s WALL (   10442 calls)
     davcio       :      0.00s CPU      0.05s WALL (      12 calls)

     Parallel routines

     PWSCF        :   2m18.36s CPU   2m18.86s WALL


   This run was terminated on:  22:46: 1  13May2021            

=------------------------------------------------------------------------------=
   JOB DONE.
=------------------------------------------------------------------------------=
