
     Program PHONON v.7.1 starts on 20Dec2022 at 23:23:15 

     This program is part of the open-source Quantum ESPRESSO suite
     for quantum simulation of materials; please cite
         "P. Giannozzi et al., J. Phys.:Condens. Matter 21 395502 (2009);
         "P. Giannozzi et al., J. Phys.:Condens. Matter 29 465901 (2017);
         "P. Giannozzi et al., J. Chem. Phys. 152 154105 (2020);
          URL http://www.quantum-espresso.org", 
     in publications or presentations arising from this work. More details at
     http://www.quantum-espresso.org/quote

     Parallel version (MPI), running on     1 processors

     MPI processes distributed on     1 nodes
     810 MiB available memory on the printing compute node when the environment starts

     Waiting for input...
     Reading input from standard input


     Dynamical matrices for q-points given in input
     (   4q-points):
       N         xq(1)         xq(2)         xq(3) 
       1   0.000000000   0.000000000   0.000000000
       2  -0.166666700   0.000000000   0.000000000
       3  -0.333333300   0.000000000   0.000000000
       4   0.500000000   0.000000000   0.000000000

     Reading xml data from directory:

     ./hchain.save/

     Subspace diagonalization in iterative solution of the eigenvalue problem:
     a serial algorithm will be used


     IMPORTANT: XC functional enforced from input :
     Exchange-correlation= PBE
                           (   1   4   3   4   0   0   0)
     Any further DFT definition will be discarded
     Please, verify this is what you really want


     G-vector sticks info
     --------------------
     sticks:   dense  smooth     PW     G-vecs:    dense   smooth      PW
     Sum        1313    1313    373                49989    49989    7587

     Using Slab Decomposition

     Reading collected, re-writing distributed wavefunctions in ./
  autoval = -.3745E+00
     Irreps are as follows:

                     mode #   1
                     (  -0.00000  -0.00000   ) 
                     (  -0.00000  -0.00000   ) 
                     (  -0.00000  -0.00000   ) 
                     (  -1.00000  -0.00000   ) 
                     (  -0.00000  -0.00000   ) 
                     (  -0.00000  -0.00000   ) 
  autoval = -.1683E+00
     Irreps are as follows:

                     mode #   2
                     (  -0.00000  -0.00000   ) 
                     (  -1.00000  -0.00000   ) 
                     (  -0.00000  -0.00000   ) 
                     (  -0.00000  -0.00000   ) 
                     (  -0.00000  -0.00000   ) 
                     (  -0.00000  -0.00000   ) 
  autoval = -.1683E+00
     Irreps are as follows:

                     mode #   3
                     (  -0.00000  -0.00000   ) 
                     (  -0.00000  -0.00000   ) 
                     (  -1.00000  -0.00000   ) 
                     (  -0.00000  -0.00000   ) 
                     (  -0.00000  -0.00000   ) 
                     (  -0.00000  -0.00000   ) 
  autoval = 0.2011E+00
     Irreps are as follows:

                     mode #   4
                     (  -0.00000  -0.00000   ) 
                     (  -0.00000  -0.00000   ) 
                     (  -0.00000  -0.00000   ) 
                     (  -0.00000  -0.00000   ) 
                     (  -1.00000  -0.00000   ) 
                     (  -0.00000  -0.00000   ) 
  autoval = 0.2011E+00
     Irreps are as follows:

                     mode #   5
                     (  -0.00000  -0.00000   ) 
                     (  -0.00000  -0.00000   ) 
                     (  -0.00000  -0.00000   ) 
                     (  -0.00000  -0.00000   ) 
                     (  -0.00000  -0.00000   ) 
                     (  -1.00000  -0.00000   ) 
  autoval = 0.3260E+01
     Irreps are as follows:

                     mode #   6
                     (  -1.00000  -0.00000   ) 
                     (  -0.00000  -0.00000   ) 
                     (  -0.00000  -0.00000   ) 
                     (  -0.00000  -0.00000   ) 
                     (  -0.00000  -0.00000   ) 
                     (  -0.00000  -0.00000   ) 
  autoval = -.3745E+00
     Irreps are as follows:

                     mode #   1
                     (  -0.00000  -0.00000   ) 
                     (  -0.00000  -0.00000   ) 
                     (  -0.00000  -0.00000   ) 
                     (  -1.00000  -0.00000   ) 
                     (  -0.00000  -0.00000   ) 
                     (  -0.00000  -0.00000   ) 
  autoval = -.1683E+00
     Irreps are as follows:

                     mode #   2
                     (  -0.00000  -0.00000   ) 
                     (  -1.00000  -0.00000   ) 
                     (  -0.00000  -0.00000   ) 
                     (  -0.00000  -0.00000   ) 
                     (  -0.00000  -0.00000   ) 
                     (  -0.00000  -0.00000   ) 
  autoval = -.1683E+00
     Irreps are as follows:

                     mode #   3
                     (  -0.00000  -0.00000   ) 
                     (  -0.00000  -0.00000   ) 
                     (  -1.00000  -0.00000   ) 
                     (  -0.00000  -0.00000   ) 
                     (  -0.00000  -0.00000   ) 
                     (  -0.00000  -0.00000   ) 
  autoval = 0.2011E+00
     Irreps are as follows:

                     mode #   4
                     (  -0.00000  -0.00000   ) 
                     (  -0.00000  -0.00000   ) 
                     (  -0.00000  -0.00000   ) 
                     (  -0.00000  -0.00000   ) 
                     (  -1.00000  -0.00000   ) 
                     (  -0.00000  -0.00000   ) 
  autoval = 0.2011E+00
     Irreps are as follows:

                     mode #   5
                     (  -0.00000  -0.00000   ) 
                     (  -0.00000  -0.00000   ) 
                     (  -0.00000  -0.00000   ) 
                     (  -0.00000  -0.00000   ) 
                     (  -0.00000  -0.00000   ) 
                     (  -1.00000  -0.00000   ) 
  autoval = 0.3260E+01
     Irreps are as follows:

                     mode #   6
                     (  -1.00000  -0.00000   ) 
                     (  -0.00000  -0.00000   ) 
                     (  -0.00000  -0.00000   ) 
                     (  -0.00000  -0.00000   ) 
                     (  -0.00000  -0.00000   ) 
                     (  -0.00000  -0.00000   ) 
  autoval = -.3745E+00
     Irreps are as follows:

                     mode #   1
                     (  -0.00000  -0.00000   ) 
                     (  -0.00000  -0.00000   ) 
                     (  -0.00000  -0.00000   ) 
                     (  -1.00000  -0.00000   ) 
                     (  -0.00000  -0.00000   ) 
                     (  -0.00000  -0.00000   ) 
  autoval = -.1683E+00
     Irreps are as follows:

                     mode #   2
                     (  -0.00000  -0.00000   ) 
                     (  -1.00000  -0.00000   ) 
                     (  -0.00000  -0.00000   ) 
                     (  -0.00000  -0.00000   ) 
                     (  -0.00000  -0.00000   ) 
                     (  -0.00000  -0.00000   ) 
  autoval = -.1683E+00
     Irreps are as follows:

                     mode #   3
                     (  -0.00000  -0.00000   ) 
                     (  -0.00000  -0.00000   ) 
                     (  -1.00000  -0.00000   ) 
                     (  -0.00000  -0.00000   ) 
                     (  -0.00000  -0.00000   ) 
                     (  -0.00000  -0.00000   ) 
  autoval = 0.2011E+00
     Irreps are as follows:

                     mode #   4
                     (  -0.00000  -0.00000   ) 
                     (  -0.00000  -0.00000   ) 
                     (  -0.00000  -0.00000   ) 
                     (  -0.00000  -0.00000   ) 
                     (  -1.00000  -0.00000   ) 
                     (  -0.00000  -0.00000   ) 
  autoval = 0.2011E+00
     Irreps are as follows:

                     mode #   5
                     (  -0.00000  -0.00000   ) 
                     (  -0.00000  -0.00000   ) 
                     (  -0.00000  -0.00000   ) 
                     (  -0.00000  -0.00000   ) 
                     (  -0.00000  -0.00000   ) 
                     (  -1.00000  -0.00000   ) 
  autoval = 0.3260E+01
     Irreps are as follows:

                     mode #   6
                     (  -1.00000  -0.00000   ) 
                     (  -0.00000  -0.00000   ) 
                     (  -0.00000  -0.00000   ) 
                     (  -0.00000  -0.00000   ) 
                     (  -0.00000  -0.00000   ) 
                     (  -0.00000  -0.00000   ) 
  autoval = -.3745E+00
     Irreps are as follows:

                     mode #   1
                     (  -0.00000  -0.00000   ) 
                     (  -0.00000  -0.00000   ) 
                     (  -0.00000  -0.00000   ) 
                     (  -1.00000  -0.00000   ) 
                     (  -0.00000  -0.00000   ) 
                     (  -0.00000  -0.00000   ) 
  autoval = -.1683E+00
     Irreps are as follows:

                     mode #   2
                     (  -0.00000  -0.00000   ) 
                     (  -1.00000  -0.00000   ) 
                     (  -0.00000  -0.00000   ) 
                     (  -0.00000  -0.00000   ) 
                     (  -0.00000  -0.00000   ) 
                     (  -0.00000  -0.00000   ) 
  autoval = -.1683E+00
     Irreps are as follows:

                     mode #   3
                     (  -0.00000  -0.00000   ) 
                     (  -0.00000  -0.00000   ) 
                     (  -1.00000  -0.00000   ) 
                     (  -0.00000  -0.00000   ) 
                     (  -0.00000  -0.00000   ) 
                     (  -0.00000  -0.00000   ) 
  autoval = 0.2011E+00
     Irreps are as follows:

                     mode #   4
                     (  -0.00000  -0.00000   ) 
                     (  -0.00000  -0.00000   ) 
                     (  -0.00000  -0.00000   ) 
                     (  -0.00000  -0.00000   ) 
                     (  -1.00000  -0.00000   ) 
                     (  -0.00000  -0.00000   ) 
  autoval = 0.2011E+00
     Irreps are as follows:

                     mode #   5
                     (  -0.00000  -0.00000   ) 
                     (  -0.00000  -0.00000   ) 
                     (  -0.00000  -0.00000   ) 
                     (  -0.00000  -0.00000   ) 
                     (  -0.00000  -0.00000   ) 
                     (  -1.00000  -0.00000   ) 
  autoval = 0.3260E+01
     Irreps are as follows:

                     mode #   6
                     (  -1.00000  -0.00000   ) 
                     (  -0.00000  -0.00000   ) 
                     (  -0.00000  -0.00000   ) 
                     (  -0.00000  -0.00000   ) 
                     (  -0.00000  -0.00000   ) 
                     (  -0.00000  -0.00000   ) 

     Saving dvscf to file. Distribute only q points, not irreducible represetations.

     Calculation of q =    0.0000000   0.0000000   0.0000000

     hchain_dvscf                                                               

     bravais-lattice index     =            8
     lattice parameter (alat)  =       5.1779  a.u.
     unit-cell volume          =     517.7850 (a.u.)^3
     number of atoms/cell      =            2
     number of atomic types    =            1
     kinetic-energy cut-off    =      80.0000  Ry
     charge density cut-off    =     320.0000  Ry
     convergence threshold     =      1.0E-12
     beta                      =       0.7000
     number of iterations used =            4
     Exchange-correlation= PBE
                           (   1   4   3   4   0   0   0)


     celldm(1)=    5.17785  celldm(2)=    1.93130  celldm(3)=    1.93130
     celldm(4)=    0.00000  celldm(5)=    0.00000  celldm(6)=    0.00000

     crystal axes: (cart. coord. in units of alat)
               a(1) = (  1.0000  0.0000  0.0000 )  
               a(2) = (  0.0000  1.9313  0.0000 )  
               a(3) = (  0.0000  0.0000  1.9313 )  

     reciprocal axes: (cart. coord. in units 2 pi/alat)
               b(1) = (  1.0000  0.0000  0.0000 )  
               b(2) = (  0.0000  0.5178  0.0000 )  
               b(3) = (  0.0000  0.0000  0.5178 )  


     Atoms inside the unit cell: 

     Cartesian axes

     site n.  atom      mass           positions (alat units)
        1     H    1.0079   tau(    1) = (    0.00000    0.00000    0.00000  )
        2     H    1.0079   tau(    2) = (    0.27007    0.00000    0.00000  )

     Computing dynamical matrix for 
                    q = (   0.0000000   0.0000000   0.0000000 )

      9 Sym.Ops. (with q -> -q+G )

                                    s                        frac. trans.

      isym =  1     identity                                     

 cryst.   s( 1) = (     1          0          0      )
                  (     0          1          0      )
                  (     0          0          1      )

 cart.    s( 1) = (  1.0000000  0.0000000  0.0000000 )
                  (  0.0000000  1.0000000  0.0000000 )
                  (  0.0000000  0.0000000  1.0000000 )


      isym =  2     180 deg rotation - cart. axis [1,0,0]        

 cryst.   s( 2) = (     1          0          0      )
                  (     0         -1          0      )
                  (     0          0         -1      )

 cart.    s( 2) = (  1.0000000  0.0000000  0.0000000 )
                  (  0.0000000 -1.0000000  0.0000000 )
                  (  0.0000000  0.0000000 -1.0000000 )


      isym =  3      90 deg rotation - cart. axis [-1,0,0]       

 cryst.   s( 3) = (     1          0          0      )
                  (     0          0         -1      )
                  (     0          1          0      )

 cart.    s( 3) = (  1.0000000  0.0000000  0.0000000 )
                  (  0.0000000  0.0000000  1.0000000 )
                  (  0.0000000 -1.0000000  0.0000000 )


      isym =  4      90 deg rotation - cart. axis [1,0,0]        

 cryst.   s( 4) = (     1          0          0      )
                  (     0          0          1      )
                  (     0         -1          0      )

 cart.    s( 4) = (  1.0000000  0.0000000  0.0000000 )
                  (  0.0000000  0.0000000 -1.0000000 )
                  (  0.0000000  1.0000000  0.0000000 )


      isym =  5     inv. 180 deg rotation - cart. axis [0,0,1]   

 cryst.   s( 5) = (     1          0          0      )
                  (     0          1          0      )
                  (     0          0         -1      )

 cart.    s( 5) = (  1.0000000  0.0000000  0.0000000 )
                  (  0.0000000  1.0000000  0.0000000 )
                  (  0.0000000  0.0000000 -1.0000000 )


      isym =  6     inv. 180 deg rotation - cart. axis [0,1,0]   

 cryst.   s( 6) = (     1          0          0      )
                  (     0         -1          0      )
                  (     0          0          1      )

 cart.    s( 6) = (  1.0000000  0.0000000  0.0000000 )
                  (  0.0000000 -1.0000000  0.0000000 )
                  (  0.0000000  0.0000000  1.0000000 )


      isym =  7     inv. 180 deg rotation - cart. axis [0,1,1]   

 cryst.   s( 7) = (     1          0          0      )
                  (     0          0         -1      )
                  (     0         -1          0      )

 cart.    s( 7) = (  1.0000000  0.0000000  0.0000000 )
                  (  0.0000000  0.0000000 -1.0000000 )
                  (  0.0000000 -1.0000000  0.0000000 )


      isym =  8     inv. 180 deg rotation - cart. axis [0,1,-1]  

 cryst.   s( 8) = (     1          0          0      )
                  (     0          0          1      )
                  (     0          1          0      )

 cart.    s( 8) = (  1.0000000  0.0000000  0.0000000 )
                  (  0.0000000  0.0000000  1.0000000 )
                  (  0.0000000  1.0000000  0.0000000 )


     This transformation sends q -> -q+G

      isym =  9     identity                                     

 cryst.   s( 9) = (     1          0          0      )
                  (     0          1          0      )
                  (     0          0          1      )

 cart.    s( 9) = (  1.0000000  0.0000000  0.0000000 )
                  (  0.0000000  1.0000000  0.0000000 )
                  (  0.0000000  0.0000000  1.0000000 )


     G cutoff =  217.3147  (  49989 G-vectors)     FFT grid: ( 30, 60, 60)
     number of k points=     4
                       cart. coord. in units 2pi/alat
        k(    1) = (   0.0000000   0.0000000   0.0000000), wk =   0.3333333
        k(    2) = (   0.1666667   0.0000000   0.0000000), wk =   0.6666667
        k(    3) = (   0.3333333   0.0000000   0.0000000), wk =   0.6666667
        k(    4) = (  -0.5000000   0.0000000   0.0000000), wk =   0.3333333

                       cryst. coord.
        k(    1) = (   0.0000000   0.0000000   0.0000000), wk =   0.3333333
        k(    2) = (   0.1666667   0.0000000   0.0000000), wk =   0.6666667
        k(    3) = (   0.3333333   0.0000000   0.0000000), wk =   0.6666667
        k(    4) = (  -0.5000000   0.0000000   0.0000000), wk =   0.3333333

     PseudoPot. # 1 for H  read from file:
     ./pseudo/H_ONCV_PBE.upf
     MD5 check sum: e96aa7e3e4a958db16958554ea960e2a
     Pseudo is Norm-conserving, Zval =  1.0
     Generated using ONCVPSP code by D. R. Hamann
     Using radial grid of 1166 points,  3 beta functions with: 
                l(1) =   0
                l(2) =   0
                l(3) =   1

     point group C_4v (4mm) 
     there are  5 classes
     the character table:

       E     2C4   C2    2s_v  2s_d 
A_1    1.00  1.00  1.00  1.00  1.00
A_2    1.00  1.00  1.00 -1.00 -1.00
B_1    1.00 -1.00  1.00  1.00 -1.00
B_2    1.00 -1.00  1.00 -1.00  1.00
E      2.00  0.00 -2.00  0.00  0.00

     the symmetry operations in each class and the name of the first element:

     E        1
                                                                 
     2C4      3    4
                                                                 
     C2       2
                                                                 
     2s_v     5    6
                                                                 
     2s_d     7    8
                                                                 


     Atomic displacements:
     There are    4 irreducible representations

     Representation     1      1 modes -  To be done
     Irreps are as follows:

                     mode #   1
                     (  -0.00000  -0.00000   ) 
                     (  -0.00000  -0.00000   ) 
                     (  -0.00000  -0.00000   ) 
                     (  -1.00000  -0.00000   ) 
                     (  -0.00000  -0.00000   ) 
                     (  -0.00000  -0.00000   ) 

     Representation     2      1 modes -  To be done
     Irreps are as follows:

                     mode #   2
                     (  -1.00000  -0.00000   ) 
                     (  -0.00000  -0.00000   ) 
                     (  -0.00000  -0.00000   ) 
                     (  -0.00000  -0.00000   ) 
                     (  -0.00000  -0.00000   ) 
                     (  -0.00000  -0.00000   ) 

     Representation     3      2 modes -  To be done
     Irreps are as follows:

           mode #   3                           mode #   4
           (  -0.00000  -0.00000   )            (  -0.00000  -0.00000   ) 
           (  -1.00000  -0.00000   )            (  -0.00000  -0.00000   ) 
           (  -0.00000  -0.00000   )            (  -1.00000  -0.00000   ) 
           (  -0.00000  -0.00000   )            (  -0.00000  -0.00000   ) 
           (  -0.00000  -0.00000   )            (  -0.00000  -0.00000   ) 
           (  -0.00000  -0.00000   )            (  -0.00000  -0.00000   ) 

     Representation     4      2 modes -  To be done
     Irreps are as follows:

           mode #   5                           mode #   6
           (  -0.00000  -0.00000   )            (  -0.00000  -0.00000   ) 
           (  -0.00000  -0.00000   )            (  -0.00000  -0.00000   ) 
           (  -0.00000  -0.00000   )            (  -0.00000  -0.00000   ) 
           (  -0.00000  -0.00000   )            (  -0.00000  -0.00000   ) 
           (  -1.00000  -0.00000   )            (  -0.00000  -0.00000   ) 
           (  -0.00000  -0.00000   )            (  -1.00000  -0.00000   ) 



     Alpha used in Ewald sum =   2.8000
     PHONON       :      0.53s CPU      0.57s WALL



     Representation #   1 mode #   1

     Self-consistent Calculation

      iter #   1 total cpu time :     0.8 secs   av.it.:   7.0
      thresh= 1.000E-02 alpha_mix =  0.700 |ddv_scf|^2 =  6.525E-08

      iter #   2 total cpu time :     1.1 secs   av.it.:  10.0
      thresh= 2.554E-05 alpha_mix =  0.700 |ddv_scf|^2 =  1.151E-09

      iter #   3 total cpu time :     1.3 secs   av.it.:   9.8
      thresh= 3.392E-06 alpha_mix =  0.700 |ddv_scf|^2 =  3.539E-10

      iter #   4 total cpu time :     1.5 secs   av.it.:   9.0
      thresh= 1.881E-06 alpha_mix =  0.700 |ddv_scf|^2 =  6.611E-13

     End of self-consistent calculation

     Convergence has been achieved 


     Representation #   2 mode #   2

     Self-consistent Calculation

      iter #   1 total cpu time :     1.8 secs   av.it.:   7.0
      thresh= 1.000E-02 alpha_mix =  0.700 |ddv_scf|^2 =  6.320E-08

      iter #   2 total cpu time :     2.0 secs   av.it.:  10.0
      thresh= 2.514E-05 alpha_mix =  0.700 |ddv_scf|^2 =  1.240E-09

      iter #   3 total cpu time :     2.2 secs   av.it.:   9.5
      thresh= 3.521E-06 alpha_mix =  0.700 |ddv_scf|^2 =  3.759E-10

      iter #   4 total cpu time :     2.5 secs   av.it.:   9.0
      thresh= 1.939E-06 alpha_mix =  0.700 |ddv_scf|^2 =  7.675E-13

     End of self-consistent calculation

     Convergence has been achieved 


     Representation #   3 modes #   3   4

     Self-consistent Calculation

      iter #   1 total cpu time :     2.9 secs   av.it.:   4.0
      thresh= 1.000E-02 alpha_mix =  0.700 |ddv_scf|^2 =  8.233E-09

      iter #   2 total cpu time :     3.3 secs   av.it.:   6.8
      thresh= 9.073E-06 alpha_mix =  0.700 |ddv_scf|^2 =  1.248E-10

      iter #   3 total cpu time :     3.6 secs   av.it.:   7.0
      thresh= 1.117E-06 alpha_mix =  0.700 |ddv_scf|^2 =  8.753E-12

      iter #   4 total cpu time :     4.0 secs   av.it.:   6.8
      thresh= 2.958E-07 alpha_mix =  0.700 |ddv_scf|^2 =  1.181E-14

     End of self-consistent calculation

     Convergence has been achieved 


     Representation #   4 modes #   5   6

     Self-consistent Calculation

      iter #   1 total cpu time :     4.5 secs   av.it.:   4.0
      thresh= 1.000E-02 alpha_mix =  0.700 |ddv_scf|^2 =  8.201E-09

      iter #   2 total cpu time :     4.8 secs   av.it.:   6.8
      thresh= 9.056E-06 alpha_mix =  0.700 |ddv_scf|^2 =  1.238E-10

      iter #   3 total cpu time :     5.1 secs   av.it.:   7.0
      thresh= 1.113E-06 alpha_mix =  0.700 |ddv_scf|^2 =  8.823E-12

      iter #   4 total cpu time :     5.5 secs   av.it.:   6.8
      thresh= 2.970E-07 alpha_mix =  0.700 |ddv_scf|^2 =  8.685E-15

     End of self-consistent calculation

     Convergence has been achieved 

     Number of q in the star =    1
     List of q in the star:
          1   0.000000000   0.000000000   0.000000000

     Diagonalizing the dynamical matrix

     q = (    0.000000000   0.000000000   0.000000000 ) 

 **************************************************************************
     freq (    1) =     -17.128678 [THz] =    -571.351211 [cm-1]
     freq (    2) =     -17.128678 [THz] =    -571.351211 [cm-1]
     freq (    3) =       2.632988 [THz] =      87.827021 [cm-1]
     freq (    4) =       3.234956 [THz] =     107.906513 [cm-1]
     freq (    5) =       3.234956 [THz] =     107.906513 [cm-1]
     freq (    6) =     132.373228 [THz] =    4415.495589 [cm-1]
 **************************************************************************

     Mode symmetry, C_4v (4mm)  point group:

     freq (   1-   2) =       -571.4  [cm-1]   --> E    G_5 D_5    I+R
     freq (   3-   3) =         87.8  [cm-1]   --> A_1  G_1 D_1    I+R
     freq (   4-   5) =        107.9  [cm-1]   --> E    G_5 D_5    I+R
     freq (   6-   6) =       4415.5  [cm-1]   --> A_1  G_1 D_1    I+R

     Calculation of q =   -0.1666667   0.0000000   0.0000000

     G-vector sticks info
     --------------------
     sticks:   dense  smooth     PW     G-vecs:    dense   smooth      PW
     Sum        1313    1313    395                49989    49989    8149

     Using Slab Decomposition


     Title: 
     hchain_dvscf                                                               


     bravais-lattice index     =            8
     lattice parameter (alat)  =       5.1779  a.u.
     unit-cell volume          =     517.7850 (a.u.)^3
     number of atoms/cell      =            2
     number of atomic types    =            1
     number of electrons       =         2.00
     number of Kohn-Sham states=            8
     kinetic-energy cutoff     =      80.0000  Ry
     charge density cutoff     =     320.0000  Ry
     Exchange-correlation= PBE
                           (   1   4   3   4   0   0   0)

     celldm(1)=   5.177850  celldm(2)=   1.931304  celldm(3)=   1.931304
     celldm(4)=   0.000000  celldm(5)=   0.000000  celldm(6)=   0.000000

     crystal axes: (cart. coord. in units of alat)
               a(1) = (   1.000000   0.000000   0.000000 )  
               a(2) = (   0.000000   1.931304   0.000000 )  
               a(3) = (   0.000000   0.000000   1.931304 )  

     reciprocal axes: (cart. coord. in units 2 pi/alat)
               b(1) = (  1.000000  0.000000  0.000000 )  
               b(2) = (  0.000000  0.517785  0.000000 )  
               b(3) = (  0.000000  0.000000  0.517785 )  


     PseudoPot. # 1 for H  read from file:
     ./pseudo/H_ONCV_PBE.upf
     MD5 check sum: e96aa7e3e4a958db16958554ea960e2a
     Pseudo is Norm-conserving, Zval =  1.0
     Generated using ONCVPSP code by D. R. Hamann
     Using radial grid of 1166 points,  3 beta functions with: 
                l(1) =   0
                l(2) =   0
                l(3) =   1

     atomic species   valence    mass     pseudopotential
        H              1.00     1.00794     H ( 1.00)

      8 Sym. Ops. (no inversion) found


                                    s                        frac. trans.

      isym =  1     identity                                     

 cryst.   s( 1) = (     1          0          0      )
                  (     0          1          0      )
                  (     0          0          1      )

 cart.    s( 1) = (  1.0000000  0.0000000  0.0000000 )
                  (  0.0000000  1.0000000  0.0000000 )
                  (  0.0000000  0.0000000  1.0000000 )


      isym =  2     180 deg rotation - cart. axis [1,0,0]        

 cryst.   s( 2) = (     1          0          0      )
                  (     0         -1          0      )
                  (     0          0         -1      )

 cart.    s( 2) = (  1.0000000  0.0000000  0.0000000 )
                  (  0.0000000 -1.0000000  0.0000000 )
                  (  0.0000000  0.0000000 -1.0000000 )


      isym =  3      90 deg rotation - cart. axis [-1,0,0]       

 cryst.   s( 3) = (     1          0          0      )
                  (     0          0         -1      )
                  (     0          1          0      )

 cart.    s( 3) = (  1.0000000  0.0000000  0.0000000 )
                  (  0.0000000  0.0000000  1.0000000 )
                  (  0.0000000 -1.0000000  0.0000000 )


      isym =  4      90 deg rotation - cart. axis [1,0,0]        

 cryst.   s( 4) = (     1          0          0      )
                  (     0          0          1      )
                  (     0         -1          0      )

 cart.    s( 4) = (  1.0000000  0.0000000  0.0000000 )
                  (  0.0000000  0.0000000 -1.0000000 )
                  (  0.0000000  1.0000000  0.0000000 )


      isym =  5     inv. 180 deg rotation - cart. axis [0,0,1]   

 cryst.   s( 5) = (     1          0          0      )
                  (     0          1          0      )
                  (     0          0         -1      )

 cart.    s( 5) = (  1.0000000  0.0000000  0.0000000 )
                  (  0.0000000  1.0000000  0.0000000 )
                  (  0.0000000  0.0000000 -1.0000000 )


      isym =  6     inv. 180 deg rotation - cart. axis [0,1,0]   

 cryst.   s( 6) = (     1          0          0      )
                  (     0         -1          0      )
                  (     0          0          1      )

 cart.    s( 6) = (  1.0000000  0.0000000  0.0000000 )
                  (  0.0000000 -1.0000000  0.0000000 )
                  (  0.0000000  0.0000000  1.0000000 )


      isym =  7     inv. 180 deg rotation - cart. axis [0,1,1]   

 cryst.   s( 7) = (     1          0          0      )
                  (     0          0         -1      )
                  (     0         -1          0      )

 cart.    s( 7) = (  1.0000000  0.0000000  0.0000000 )
                  (  0.0000000  0.0000000 -1.0000000 )
                  (  0.0000000 -1.0000000  0.0000000 )


      isym =  8     inv. 180 deg rotation - cart. axis [0,1,-1]  

 cryst.   s( 8) = (     1          0          0      )
                  (     0          0          1      )
                  (     0          1          0      )

 cart.    s( 8) = (  1.0000000  0.0000000  0.0000000 )
                  (  0.0000000  0.0000000  1.0000000 )
                  (  0.0000000  1.0000000  0.0000000 )


     point group C_4v (4mm) 
     there are  5 classes
     the character table:

       E     2C4   C2    2s_v  2s_d 
A_1    1.00  1.00  1.00  1.00  1.00
A_2    1.00  1.00  1.00 -1.00 -1.00
B_1    1.00 -1.00  1.00  1.00 -1.00
B_2    1.00 -1.00  1.00 -1.00  1.00
E      2.00  0.00 -2.00  0.00  0.00

     the symmetry operations in each class and the name of the first element:

     E        1
          identity                                               
     2C4      3    4
           90 deg rotation - cart. axis [-1,0,0]                 
     C2       2
          180 deg rotation - cart. axis [1,0,0]                  
     2s_v     5    6
          inv. 180 deg rotation - cart. axis [0,0,1]             
     2s_d     7    8
          inv. 180 deg rotation - cart. axis [0,1,1]             

   Cartesian axes

     site n.     atom                  positions (alat units)
         1           H   tau(   1) = (   0.0000000   0.0000000   0.0000000  )
         2           H   tau(   2) = (   0.2700730   0.0000000   0.0000000  )

   Crystallographic axes

     site n.     atom                  positions (cryst. coord.)
         1           H   tau(   1) = (  0.0000000  0.0000000  0.0000000  )
         2           H   tau(   2) = (  0.2700730  0.0000000  0.0000000  )

     number of k points=    12
                       cart. coord. in units 2pi/alat
        k(    1) = (   0.0000000   0.0000000   0.0000000), wk =   0.3333333
        k(    2) = (  -0.1666667   0.0000000   0.0000000), wk =   0.0000000
        k(    3) = (   0.1666667   0.0000000   0.0000000), wk =   0.3333333
        k(    4) = (  -0.0000000   0.0000000   0.0000000), wk =   0.0000000
        k(    5) = (   0.3333333   0.0000000   0.0000000), wk =   0.3333333
        k(    6) = (   0.1666666   0.0000000   0.0000000), wk =   0.0000000
        k(    7) = (  -0.5000000   0.0000000   0.0000000), wk =   0.3333333
        k(    8) = (  -0.6666667   0.0000000   0.0000000), wk =   0.0000000
        k(    9) = (  -0.1666667   0.0000000   0.0000000), wk =   0.3333333
        k(   10) = (  -0.3333334   0.0000000   0.0000000), wk =   0.0000000
        k(   11) = (  -0.3333333   0.0000000   0.0000000), wk =   0.3333333
        k(   12) = (  -0.5000000   0.0000000   0.0000000), wk =   0.0000000

                       cryst. coord.
        k(    1) = (   0.0000000   0.0000000   0.0000000), wk =   0.3333333
        k(    2) = (  -0.1666667   0.0000000   0.0000000), wk =   0.0000000
        k(    3) = (   0.1666667   0.0000000   0.0000000), wk =   0.3333333
        k(    4) = (  -0.0000000   0.0000000   0.0000000), wk =   0.0000000
        k(    5) = (   0.3333333   0.0000000   0.0000000), wk =   0.3333333
        k(    6) = (   0.1666666   0.0000000   0.0000000), wk =   0.0000000
        k(    7) = (  -0.5000000   0.0000000   0.0000000), wk =   0.3333333
        k(    8) = (  -0.6666667   0.0000000   0.0000000), wk =   0.0000000
        k(    9) = (  -0.1666667   0.0000000   0.0000000), wk =   0.3333333
        k(   10) = (  -0.3333334   0.0000000   0.0000000), wk =   0.0000000
        k(   11) = (  -0.3333333   0.0000000   0.0000000), wk =   0.3333333
        k(   12) = (  -0.5000000   0.0000000   0.0000000), wk =   0.0000000

     Dense  grid:    49989 G-vectors     FFT dimensions: (  30,  60,  60)

     Dynamical RAM for                 wfc:       0.76 MB

     Dynamical RAM for     wfc (w. buffer):       0.76 MB

     Dynamical RAM for           str. fact:       0.76 MB

     Dynamical RAM for           local pot:       0.02 MB

     Dynamical RAM for          nlocal pot:       0.95 MB

     Dynamical RAM for                qrad:       0.25 MB

     Dynamical RAM for          rho,v,vnew:       4.76 MB

     Dynamical RAM for           G-vectors:       3.24 MB

     Dynamical RAM for          h,s,v(r/c):       0.05 MB

     Dynamical RAM for          <psi|beta>:       0.00 MB

     Dynamical RAM for                 psi:       3.06 MB

     Dynamical RAM for                hpsi:       3.06 MB

     Dynamical RAM for      wfcinit/wfcrot:       1.53 MB

     Estimated static dynamical RAM per process >      16.40 MB

     Estimated max dynamical RAM per process >      22.56 MB

     The potential is recalculated from file :
     ./_ph0/hchain.save/charge-density

     Starting wfcs are    2 atomic +    6 random wfcs

     Band Structure Calculation
     Davidson diagonalization with overlap

     Computing kpt #:     1
     total cpu time spent up to now is        0.4 secs

     Computing kpt #:     2
     total cpu time spent up to now is        0.8 secs

     Computing kpt #:     3
     total cpu time spent up to now is        1.1 secs

     Computing kpt #:     4
     total cpu time spent up to now is        1.5 secs

     Computing kpt #:     5
     total cpu time spent up to now is        2.0 secs

     Computing kpt #:     6
     total cpu time spent up to now is        2.3 secs

     Computing kpt #:     7
     total cpu time spent up to now is        2.8 secs

     Computing kpt #:     8
     total cpu time spent up to now is        3.3 secs

     Computing kpt #:     9
     total cpu time spent up to now is        3.6 secs

     Computing kpt #:    10
     total cpu time spent up to now is        4.1 secs

     Computing kpt #:    11
     total cpu time spent up to now is        4.5 secs

     Computing kpt #:    12
     total cpu time spent up to now is        5.1 secs

     ethr =  5.00E-10,  avg # of iterations = 20.4

     total cpu time spent up to now is        5.1 secs

     End of band structure calculation

          k = 0.0000 0.0000 0.0000 (  6263 PWs)   bands (ev):

   -10.9360   0.0142   2.5304   2.5304   3.8964   7.1670   8.4171   8.4171

     occupation numbers 
     1.0000   0.0000   0.0000   0.0000   0.0000   0.0000   0.0000   0.0000

          k =-0.1667 0.0000 0.0000 (  6279 PWs)   bands (ev):

   -10.5933   0.4576   3.0821   3.0821   4.4526   5.6494   8.3714   8.9670

     occupation numbers 
     0.0000   0.0000   0.0000   0.0000   0.0000   0.0000   0.0000   0.0000

          k = 0.1667 0.0000 0.0000 (  6279 PWs)   bands (ev):

   -10.5933   0.4576   3.0821   3.0821   4.4526   5.6494   8.3714   8.9670

     occupation numbers 
     1.0000   0.0000   0.0000   0.0000   0.0000   0.0000   0.0000   0.0000

          k =-0.0000 0.0000 0.0000 (  6263 PWs)   bands (ev):

   -10.9360   0.0142   2.5304   2.5304   3.8964   7.1670   8.4171   8.4171

     occupation numbers 
     0.0000   0.0000   0.0000   0.0000   0.0000   0.0000   0.0000   0.0000

          k = 0.3333 0.0000 0.0000 (  6247 PWs)   bands (ev):

    -9.7653   0.8350   3.3066   4.7281   4.7281   6.1204   9.0377  10.1682

     occupation numbers 
     1.0000   0.0000   0.0000   0.0000   0.0000   0.0000   0.0000   0.0000

          k = 0.1667 0.0000 0.0000 (  6279 PWs)   bands (ev):

   -10.5933   0.4576   3.0821   3.0821   4.4526   5.6494   8.3714   8.9670

     occupation numbers 
     0.0000   0.0000   0.0000   0.0000   0.0000   0.0000   0.0000   0.0000

          k =-0.5000 0.0000 0.0000 (  6246 PWs)   bands (ev):

    -9.2371  -0.1217   4.8169   6.1250   7.0093   7.0093   8.0699   8.0699

     occupation numbers 
     1.0000   0.0000   0.0000   0.0000   0.0000   0.0000   0.0000   0.0000

          k =-0.6667 0.0000 0.0000 (  6247 PWs)   bands (ev):

    -9.7653   0.8350   3.3066   4.7281   4.7281   6.1204   9.0377  10.1682

     occupation numbers 
     0.0000   0.0000   0.0000   0.0000   0.0000   0.0000   0.0000   0.0000

          k =-0.1667 0.0000 0.0000 (  6279 PWs)   bands (ev):

   -10.5933   0.4576   3.0821   3.0821   4.4526   5.6494   8.3714   8.9670

     occupation numbers 
     1.0000   0.0000   0.0000   0.0000   0.0000   0.0000   0.0000   0.0000

          k =-0.3333 0.0000 0.0000 (  6247 PWs)   bands (ev):

    -9.7653   0.8350   3.3066   4.7281   4.7281   6.1204   9.0377  10.1682

     occupation numbers 
     0.0000   0.0000   0.0000   0.0000   0.0000   0.0000   0.0000   0.0000

          k =-0.3333 0.0000 0.0000 (  6247 PWs)   bands (ev):

    -9.7653   0.8350   3.3066   4.7281   4.7281   6.1204   9.0377  10.1682

     occupation numbers 
     1.0000   0.0000   0.0000   0.0000   0.0000   0.0000   0.0000   0.0000

          k =-0.5000 0.0000 0.0000 (  6246 PWs)   bands (ev):

    -9.2371  -0.1217   4.8169   6.1250   7.0093   7.0093   8.0699   8.0699

     occupation numbers 
     0.0000   0.0000   0.0000   0.0000   0.0000   0.0000   0.0000   0.0000

     highest occupied, lowest unoccupied level (ev):    -9.2371   -0.1217

     Writing config to output data dir ./_ph0/hchain.save/

     hchain_dvscf                                                               

     bravais-lattice index     =            8
     lattice parameter (alat)  =       5.1779  a.u.
     unit-cell volume          =     517.7850 (a.u.)^3
     number of atoms/cell      =            2
     number of atomic types    =            1
     kinetic-energy cut-off    =      80.0000  Ry
     charge density cut-off    =     320.0000  Ry
     convergence threshold     =      1.0E-12
     beta                      =       0.7000
     number of iterations used =            4
     Exchange-correlation= PBE
                           (   1   4   3   4   0   0   0)


     celldm(1)=    5.17785  celldm(2)=    1.93130  celldm(3)=    1.93130
     celldm(4)=    0.00000  celldm(5)=    0.00000  celldm(6)=    0.00000

     crystal axes: (cart. coord. in units of alat)
               a(1) = (  1.0000  0.0000  0.0000 )  
               a(2) = (  0.0000  1.9313  0.0000 )  
               a(3) = (  0.0000  0.0000  1.9313 )  

     reciprocal axes: (cart. coord. in units 2 pi/alat)
               b(1) = (  1.0000  0.0000  0.0000 )  
               b(2) = (  0.0000  0.5178  0.0000 )  
               b(3) = (  0.0000  0.0000  0.5178 )  


     Atoms inside the unit cell: 

     Cartesian axes

     site n.  atom      mass           positions (alat units)
        1     H    1.0079   tau(    1) = (    0.00000    0.00000    0.00000  )
        2     H    1.0079   tau(    2) = (    0.27007    0.00000    0.00000  )

     Computing dynamical matrix for 
                    q = (  -0.1666667   0.0000000   0.0000000 )

      8 Sym.Ops. (no q -> -q+G )

                                    s                        frac. trans.

      isym =  1     identity                                     

 cryst.   s( 1) = (     1          0          0      )
                  (     0          1          0      )
                  (     0          0          1      )

 cart.    s( 1) = (  1.0000000  0.0000000  0.0000000 )
                  (  0.0000000  1.0000000  0.0000000 )
                  (  0.0000000  0.0000000  1.0000000 )


      isym =  2     180 deg rotation - cart. axis [1,0,0]        

 cryst.   s( 2) = (     1          0          0      )
                  (     0         -1          0      )
                  (     0          0         -1      )

 cart.    s( 2) = (  1.0000000  0.0000000  0.0000000 )
                  (  0.0000000 -1.0000000  0.0000000 )
                  (  0.0000000  0.0000000 -1.0000000 )


      isym =  3      90 deg rotation - cart. axis [-1,0,0]       

 cryst.   s( 3) = (     1          0          0      )
                  (     0          0         -1      )
                  (     0          1          0      )

 cart.    s( 3) = (  1.0000000  0.0000000  0.0000000 )
                  (  0.0000000  0.0000000  1.0000000 )
                  (  0.0000000 -1.0000000  0.0000000 )


      isym =  4      90 deg rotation - cart. axis [1,0,0]        

 cryst.   s( 4) = (     1          0          0      )
                  (     0          0          1      )
                  (     0         -1          0      )

 cart.    s( 4) = (  1.0000000  0.0000000  0.0000000 )
                  (  0.0000000  0.0000000 -1.0000000 )
                  (  0.0000000  1.0000000  0.0000000 )


      isym =  5     inv. 180 deg rotation - cart. axis [0,0,1]   

 cryst.   s( 5) = (     1          0          0      )
                  (     0          1          0      )
                  (     0          0         -1      )

 cart.    s( 5) = (  1.0000000  0.0000000  0.0000000 )
                  (  0.0000000  1.0000000  0.0000000 )
                  (  0.0000000  0.0000000 -1.0000000 )


      isym =  6     inv. 180 deg rotation - cart. axis [0,1,0]   

 cryst.   s( 6) = (     1          0          0      )
                  (     0         -1          0      )
                  (     0          0          1      )

 cart.    s( 6) = (  1.0000000  0.0000000  0.0000000 )
                  (  0.0000000 -1.0000000  0.0000000 )
                  (  0.0000000  0.0000000  1.0000000 )


      isym =  7     inv. 180 deg rotation - cart. axis [0,1,1]   

 cryst.   s( 7) = (     1          0          0      )
                  (     0          0         -1      )
                  (     0         -1          0      )

 cart.    s( 7) = (  1.0000000  0.0000000  0.0000000 )
                  (  0.0000000  0.0000000 -1.0000000 )
                  (  0.0000000 -1.0000000  0.0000000 )


      isym =  8     inv. 180 deg rotation - cart. axis [0,1,-1]  

 cryst.   s( 8) = (     1          0          0      )
                  (     0          0          1      )
                  (     0          1          0      )

 cart.    s( 8) = (  1.0000000  0.0000000  0.0000000 )
                  (  0.0000000  0.0000000  1.0000000 )
                  (  0.0000000  1.0000000  0.0000000 )


     G cutoff =  217.3147  (  49989 G-vectors)     FFT grid: ( 30, 60, 60)
     number of k points=    12
                       cart. coord. in units 2pi/alat
        k(    1) = (   0.0000000   0.0000000   0.0000000), wk =   0.3333333
        k(    2) = (  -0.1666667   0.0000000   0.0000000), wk =   0.0000000
        k(    3) = (   0.1666667   0.0000000   0.0000000), wk =   0.3333333
        k(    4) = (  -0.0000000   0.0000000   0.0000000), wk =   0.0000000
        k(    5) = (   0.3333333   0.0000000   0.0000000), wk =   0.3333333
        k(    6) = (   0.1666666   0.0000000   0.0000000), wk =   0.0000000
        k(    7) = (  -0.5000000   0.0000000   0.0000000), wk =   0.3333333
        k(    8) = (  -0.6666667   0.0000000   0.0000000), wk =   0.0000000
        k(    9) = (  -0.1666667   0.0000000   0.0000000), wk =   0.3333333
        k(   10) = (  -0.3333334   0.0000000   0.0000000), wk =   0.0000000
        k(   11) = (  -0.3333333   0.0000000   0.0000000), wk =   0.3333333
        k(   12) = (  -0.5000000   0.0000000   0.0000000), wk =   0.0000000

                       cryst. coord.
        k(    1) = (   0.0000000   0.0000000   0.0000000), wk =   0.3333333
        k(    2) = (  -0.1666667   0.0000000   0.0000000), wk =   0.0000000
        k(    3) = (   0.1666667   0.0000000   0.0000000), wk =   0.3333333
        k(    4) = (  -0.0000000   0.0000000   0.0000000), wk =   0.0000000
        k(    5) = (   0.3333333   0.0000000   0.0000000), wk =   0.3333333
        k(    6) = (   0.1666666   0.0000000   0.0000000), wk =   0.0000000
        k(    7) = (  -0.5000000   0.0000000   0.0000000), wk =   0.3333333
        k(    8) = (  -0.6666667   0.0000000   0.0000000), wk =   0.0000000
        k(    9) = (  -0.1666667   0.0000000   0.0000000), wk =   0.3333333
        k(   10) = (  -0.3333334   0.0000000   0.0000000), wk =   0.0000000
        k(   11) = (  -0.3333333   0.0000000   0.0000000), wk =   0.3333333
        k(   12) = (  -0.5000000   0.0000000   0.0000000), wk =   0.0000000

     PseudoPot. # 1 for H  read from file:
     ./pseudo/H_ONCV_PBE.upf
     MD5 check sum: e96aa7e3e4a958db16958554ea960e2a
     Pseudo is Norm-conserving, Zval =  1.0
     Generated using ONCVPSP code by D. R. Hamann
     Using radial grid of 1166 points,  3 beta functions with: 
                l(1) =   0
                l(2) =   0
                l(3) =   1

     point group C_4v (4mm) 
     there are  5 classes
     the character table:

       E     2C4   C2    2s_v  2s_d 
A_1    1.00  1.00  1.00  1.00  1.00
A_2    1.00  1.00  1.00 -1.00 -1.00
B_1    1.00 -1.00  1.00  1.00 -1.00
B_2    1.00 -1.00  1.00 -1.00  1.00
E      2.00  0.00 -2.00  0.00  0.00

     the symmetry operations in each class and the name of the first element:

     E        1
          identity                                               
     2C4      3    4
           90 deg rotation - cart. axis [-1,0,0]                 
     C2       2
          180 deg rotation - cart. axis [1,0,0]                  
     2s_v     5    6
          inv. 180 deg rotation - cart. axis [0,0,1]             
     2s_d     7    8
          inv. 180 deg rotation - cart. axis [0,1,1]             


     Atomic displacements:
     There are    4 irreducible representations

     Representation     1      1 modes -  To be done
     Irreps are as follows:

                     mode #   1
                     (  -0.00000  -0.00000   ) 
                     (  -0.00000  -0.00000   ) 
                     (  -0.00000  -0.00000   ) 
                     (  -1.00000  -0.00000   ) 
                     (  -0.00000  -0.00000   ) 
                     (  -0.00000  -0.00000   ) 

     Representation     2      1 modes -  To be done
     Irreps are as follows:

                     mode #   2
                     (  -1.00000  -0.00000   ) 
                     (  -0.00000  -0.00000   ) 
                     (  -0.00000  -0.00000   ) 
                     (  -0.00000  -0.00000   ) 
                     (  -0.00000  -0.00000   ) 
                     (  -0.00000  -0.00000   ) 

     Representation     3      2 modes -  To be done
     Irreps are as follows:

           mode #   3                           mode #   4
           (  -0.00000  -0.00000   )            (  -0.00000  -0.00000   ) 
           (  -1.00000  -0.00000   )            (  -0.00000  -0.00000   ) 
           (  -0.00000  -0.00000   )            (  -1.00000  -0.00000   ) 
           (  -0.00000  -0.00000   )            (  -0.00000  -0.00000   ) 
           (  -0.00000  -0.00000   )            (  -0.00000  -0.00000   ) 
           (  -0.00000  -0.00000   )            (  -0.00000  -0.00000   ) 

     Representation     4      2 modes -  To be done
     Irreps are as follows:

           mode #   5                           mode #   6
           (  -0.00000  -0.00000   )            (  -0.00000  -0.00000   ) 
           (  -0.00000  -0.00000   )            (  -0.00000  -0.00000   ) 
           (  -0.00000  -0.00000   )            (  -0.00000  -0.00000   ) 
           (  -0.00000  -0.00000   )            (  -0.00000  -0.00000   ) 
           (  -1.00000  -0.00000   )            (  -0.00000  -0.00000   ) 
           (  -0.00000  -0.00000   )            (  -1.00000  -0.00000   ) 



     Alpha used in Ewald sum =   2.8000
     PHONON       :     10.73s CPU     11.02s WALL



     Representation #   1 mode #   1

     Self-consistent Calculation

      iter #   1 total cpu time :    11.4 secs   av.it.:   7.0
      thresh= 1.000E-02 alpha_mix =  0.700 |ddv_scf|^2 =  4.326E-07

      iter #   2 total cpu time :    11.7 secs   av.it.:   9.5
      thresh= 6.578E-05 alpha_mix =  0.700 |ddv_scf|^2 =  1.188E-08

      iter #   3 total cpu time :    12.0 secs   av.it.:   9.2
      thresh= 1.090E-05 alpha_mix =  0.700 |ddv_scf|^2 =  3.797E-10

      iter #   4 total cpu time :    12.3 secs   av.it.:   9.0
      thresh= 1.949E-06 alpha_mix =  0.700 |ddv_scf|^2 =  9.379E-11

      iter #   5 total cpu time :    12.6 secs   av.it.:   9.0
      thresh= 9.685E-07 alpha_mix =  0.700 |ddv_scf|^2 =  9.760E-14

     End of self-consistent calculation

     Convergence has been achieved 


     Representation #   2 mode #   2

     Self-consistent Calculation

      iter #   1 total cpu time :    13.0 secs   av.it.:   7.0
      thresh= 1.000E-02 alpha_mix =  0.700 |ddv_scf|^2 =  4.293E-07

      iter #   2 total cpu time :    13.3 secs   av.it.:   9.5
      thresh= 6.552E-05 alpha_mix =  0.700 |ddv_scf|^2 =  1.171E-08

      iter #   3 total cpu time :    13.6 secs   av.it.:   9.2
      thresh= 1.082E-05 alpha_mix =  0.700 |ddv_scf|^2 =  3.746E-10

      iter #   4 total cpu time :    13.9 secs   av.it.:   9.0
      thresh= 1.935E-06 alpha_mix =  0.700 |ddv_scf|^2 =  9.388E-11

      iter #   5 total cpu time :    14.2 secs   av.it.:   9.0
      thresh= 9.689E-07 alpha_mix =  0.700 |ddv_scf|^2 =  9.284E-14

     End of self-consistent calculation

     Convergence has been achieved 


     Representation #   3 modes #   3   4

     Self-consistent Calculation

      iter #   1 total cpu time :    14.9 secs   av.it.:   4.0
      thresh= 1.000E-02 alpha_mix =  0.700 |ddv_scf|^2 =  6.587E-09

      iter #   2 total cpu time :    15.3 secs   av.it.:   6.8
      thresh= 8.116E-06 alpha_mix =  0.700 |ddv_scf|^2 =  1.204E-10

      iter #   3 total cpu time :    15.8 secs   av.it.:   7.0
      thresh= 1.097E-06 alpha_mix =  0.700 |ddv_scf|^2 =  6.349E-12

      iter #   4 total cpu time :    16.3 secs   av.it.:   6.7
      thresh= 2.520E-07 alpha_mix =  0.700 |ddv_scf|^2 =  9.813E-15

     End of self-consistent calculation

     Convergence has been achieved 


     Representation #   4 modes #   5   6

     Self-consistent Calculation

      iter #   1 total cpu time :    17.0 secs   av.it.:   4.0
      thresh= 1.000E-02 alpha_mix =  0.700 |ddv_scf|^2 =  6.549E-09

      iter #   2 total cpu time :    17.4 secs   av.it.:   6.8
      thresh= 8.093E-06 alpha_mix =  0.700 |ddv_scf|^2 =  1.191E-10

      iter #   3 total cpu time :    17.9 secs   av.it.:   7.0
      thresh= 1.091E-06 alpha_mix =  0.700 |ddv_scf|^2 =  6.426E-12

      iter #   4 total cpu time :    18.3 secs   av.it.:   6.7
      thresh= 2.535E-07 alpha_mix =  0.700 |ddv_scf|^2 =  7.479E-15

     End of self-consistent calculation

     Convergence has been achieved 

     Number of q in the star =    1
     List of q in the star:
          1  -0.166666700   0.000000000   0.000000000
     In addition there is the -q list: 
          1   0.166666700  -0.000000000  -0.000000000

     Diagonalizing the dynamical matrix

     q = (   -0.166666700   0.000000000   0.000000000 ) 

 **************************************************************************
     freq (    1) =     -16.685586 [THz] =    -556.571227 [cm-1]
     freq (    2) =     -16.685586 [THz] =    -556.571227 [cm-1]
     freq (    3) =       1.287056 [THz] =      42.931568 [cm-1]
     freq (    4) =       1.287056 [THz] =      42.931568 [cm-1]
     freq (    5) =       6.850711 [THz] =     228.515128 [cm-1]
     freq (    6) =     132.505652 [THz] =    4419.912796 [cm-1]
 **************************************************************************

     Mode symmetry, C_4v (4mm)  point group:

     freq (   1-   2) =       -556.6  [cm-1]   --> E    G_5 D_5       
     freq (   3-   4) =         42.9  [cm-1]   --> E    G_5 D_5       
     freq (   5-   5) =        228.5  [cm-1]   --> A_1  G_1 D_1       
     freq (   6-   6) =       4419.9  [cm-1]   --> A_1  G_1 D_1       

     Calculation of q =   -0.3333333   0.0000000   0.0000000

     G-vector sticks info
     --------------------
     sticks:   dense  smooth     PW     G-vecs:    dense   smooth      PW
     Sum        1313    1313    407                49989    49989    8617

     Using Slab Decomposition


     Title: 
     hchain_dvscf                                                               


     bravais-lattice index     =            8
     lattice parameter (alat)  =       5.1779  a.u.
     unit-cell volume          =     517.7850 (a.u.)^3
     number of atoms/cell      =            2
     number of atomic types    =            1
     number of electrons       =         2.00
     number of Kohn-Sham states=            8
     kinetic-energy cutoff     =      80.0000  Ry
     charge density cutoff     =     320.0000  Ry
     Exchange-correlation= PBE
                           (   1   4   3   4   0   0   0)

     celldm(1)=   5.177850  celldm(2)=   1.931304  celldm(3)=   1.931304
     celldm(4)=   0.000000  celldm(5)=   0.000000  celldm(6)=   0.000000

     crystal axes: (cart. coord. in units of alat)
               a(1) = (   1.000000   0.000000   0.000000 )  
               a(2) = (   0.000000   1.931304   0.000000 )  
               a(3) = (   0.000000   0.000000   1.931304 )  

     reciprocal axes: (cart. coord. in units 2 pi/alat)
               b(1) = (  1.000000  0.000000  0.000000 )  
               b(2) = (  0.000000  0.517785  0.000000 )  
               b(3) = (  0.000000  0.000000  0.517785 )  


     PseudoPot. # 1 for H  read from file:
     ./pseudo/H_ONCV_PBE.upf
     MD5 check sum: e96aa7e3e4a958db16958554ea960e2a
     Pseudo is Norm-conserving, Zval =  1.0
     Generated using ONCVPSP code by D. R. Hamann
     Using radial grid of 1166 points,  3 beta functions with: 
                l(1) =   0
                l(2) =   0
                l(3) =   1

     atomic species   valence    mass     pseudopotential
        H              1.00     1.00794     H ( 1.00)

      8 Sym. Ops. (no inversion) found


                                    s                        frac. trans.

      isym =  1     identity                                     

 cryst.   s( 1) = (     1          0          0      )
                  (     0          1          0      )
                  (     0          0          1      )

 cart.    s( 1) = (  1.0000000  0.0000000  0.0000000 )
                  (  0.0000000  1.0000000  0.0000000 )
                  (  0.0000000  0.0000000  1.0000000 )


      isym =  2     180 deg rotation - cart. axis [1,0,0]        

 cryst.   s( 2) = (     1          0          0      )
                  (     0         -1          0      )
                  (     0          0         -1      )

 cart.    s( 2) = (  1.0000000  0.0000000  0.0000000 )
                  (  0.0000000 -1.0000000  0.0000000 )
                  (  0.0000000  0.0000000 -1.0000000 )


      isym =  3      90 deg rotation - cart. axis [-1,0,0]       

 cryst.   s( 3) = (     1          0          0      )
                  (     0          0         -1      )
                  (     0          1          0      )

 cart.    s( 3) = (  1.0000000  0.0000000  0.0000000 )
                  (  0.0000000  0.0000000  1.0000000 )
                  (  0.0000000 -1.0000000  0.0000000 )


      isym =  4      90 deg rotation - cart. axis [1,0,0]        

 cryst.   s( 4) = (     1          0          0      )
                  (     0          0          1      )
                  (     0         -1          0      )

 cart.    s( 4) = (  1.0000000  0.0000000  0.0000000 )
                  (  0.0000000  0.0000000 -1.0000000 )
                  (  0.0000000  1.0000000  0.0000000 )


      isym =  5     inv. 180 deg rotation - cart. axis [0,0,1]   

 cryst.   s( 5) = (     1          0          0      )
                  (     0          1          0      )
                  (     0          0         -1      )

 cart.    s( 5) = (  1.0000000  0.0000000  0.0000000 )
                  (  0.0000000  1.0000000  0.0000000 )
                  (  0.0000000  0.0000000 -1.0000000 )


      isym =  6     inv. 180 deg rotation - cart. axis [0,1,0]   

 cryst.   s( 6) = (     1          0          0      )
                  (     0         -1          0      )
                  (     0          0          1      )

 cart.    s( 6) = (  1.0000000  0.0000000  0.0000000 )
                  (  0.0000000 -1.0000000  0.0000000 )
                  (  0.0000000  0.0000000  1.0000000 )


      isym =  7     inv. 180 deg rotation - cart. axis [0,1,1]   

 cryst.   s( 7) = (     1          0          0      )
                  (     0          0         -1      )
                  (     0         -1          0      )

 cart.    s( 7) = (  1.0000000  0.0000000  0.0000000 )
                  (  0.0000000  0.0000000 -1.0000000 )
                  (  0.0000000 -1.0000000  0.0000000 )


      isym =  8     inv. 180 deg rotation - cart. axis [0,1,-1]  

 cryst.   s( 8) = (     1          0          0      )
                  (     0          0          1      )
                  (     0          1          0      )

 cart.    s( 8) = (  1.0000000  0.0000000  0.0000000 )
                  (  0.0000000  0.0000000  1.0000000 )
                  (  0.0000000  1.0000000  0.0000000 )


     point group C_4v (4mm) 
     there are  5 classes
     the character table:

       E     2C4   C2    2s_v  2s_d 
A_1    1.00  1.00  1.00  1.00  1.00
A_2    1.00  1.00  1.00 -1.00 -1.00
B_1    1.00 -1.00  1.00  1.00 -1.00
B_2    1.00 -1.00  1.00 -1.00  1.00
E      2.00  0.00 -2.00  0.00  0.00

     the symmetry operations in each class and the name of the first element:

     E        1
          identity                                               
     2C4      3    4
           90 deg rotation - cart. axis [-1,0,0]                 
     C2       2
          180 deg rotation - cart. axis [1,0,0]                  
     2s_v     5    6
          inv. 180 deg rotation - cart. axis [0,0,1]             
     2s_d     7    8
          inv. 180 deg rotation - cart. axis [0,1,1]             

   Cartesian axes

     site n.     atom                  positions (alat units)
         1           H   tau(   1) = (   0.0000000   0.0000000   0.0000000  )
         2           H   tau(   2) = (   0.2700730   0.0000000   0.0000000  )

   Crystallographic axes

     site n.     atom                  positions (cryst. coord.)
         1           H   tau(   1) = (  0.0000000  0.0000000  0.0000000  )
         2           H   tau(   2) = (  0.2700730  0.0000000  0.0000000  )

     number of k points=    12
                       cart. coord. in units 2pi/alat
        k(    1) = (   0.0000000   0.0000000   0.0000000), wk =   0.3333333
        k(    2) = (  -0.3333333   0.0000000   0.0000000), wk =   0.0000000
        k(    3) = (   0.1666667   0.0000000   0.0000000), wk =   0.3333333
        k(    4) = (  -0.1666666   0.0000000   0.0000000), wk =   0.0000000
        k(    5) = (   0.3333333   0.0000000   0.0000000), wk =   0.3333333
        k(    6) = (   0.0000000   0.0000000   0.0000000), wk =   0.0000000
        k(    7) = (  -0.5000000   0.0000000   0.0000000), wk =   0.3333333
        k(    8) = (  -0.8333333   0.0000000   0.0000000), wk =   0.0000000
        k(    9) = (  -0.1666667   0.0000000   0.0000000), wk =   0.3333333
        k(   10) = (  -0.5000000   0.0000000   0.0000000), wk =   0.0000000
        k(   11) = (  -0.3333333   0.0000000   0.0000000), wk =   0.3333333
        k(   12) = (  -0.6666666   0.0000000   0.0000000), wk =   0.0000000

                       cryst. coord.
        k(    1) = (   0.0000000   0.0000000   0.0000000), wk =   0.3333333
        k(    2) = (  -0.3333333   0.0000000   0.0000000), wk =   0.0000000
        k(    3) = (   0.1666667   0.0000000   0.0000000), wk =   0.3333333
        k(    4) = (  -0.1666666   0.0000000   0.0000000), wk =   0.0000000
        k(    5) = (   0.3333333   0.0000000   0.0000000), wk =   0.3333333
        k(    6) = (   0.0000000   0.0000000   0.0000000), wk =   0.0000000
        k(    7) = (  -0.5000000   0.0000000   0.0000000), wk =   0.3333333
        k(    8) = (  -0.8333333   0.0000000   0.0000000), wk =   0.0000000
        k(    9) = (  -0.1666667   0.0000000   0.0000000), wk =   0.3333333
        k(   10) = (  -0.5000000   0.0000000   0.0000000), wk =   0.0000000
        k(   11) = (  -0.3333333   0.0000000   0.0000000), wk =   0.3333333
        k(   12) = (  -0.6666666   0.0000000   0.0000000), wk =   0.0000000

     Dense  grid:    49989 G-vectors     FFT dimensions: (  30,  60,  60)

     Dynamical RAM for                 wfc:       0.76 MB

     Dynamical RAM for     wfc (w. buffer):       0.76 MB

     Dynamical RAM for           str. fact:       0.76 MB

     Dynamical RAM for           local pot:       0.02 MB

     Dynamical RAM for          nlocal pot:       0.95 MB

     Dynamical RAM for                qrad:       0.25 MB

     Dynamical RAM for          rho,v,vnew:       4.76 MB

     Dynamical RAM for           G-vectors:       3.24 MB

     Dynamical RAM for          h,s,v(r/c):       0.05 MB

     Dynamical RAM for          <psi|beta>:       0.00 MB

     Dynamical RAM for                 psi:       3.06 MB

     Dynamical RAM for                hpsi:       3.06 MB

     Dynamical RAM for      wfcinit/wfcrot:       1.53 MB

     Estimated static dynamical RAM per process >      16.40 MB

     Estimated max dynamical RAM per process >      22.56 MB

     The potential is recalculated from file :
     ./_ph0/hchain.save/charge-density

     Starting wfcs are    2 atomic +    6 random wfcs

     Band Structure Calculation
     Davidson diagonalization with overlap

     Computing kpt #:     1
     total cpu time spent up to now is        5.5 secs

     Computing kpt #:     2
     total cpu time spent up to now is        6.0 secs

     Computing kpt #:     3
     total cpu time spent up to now is        6.3 secs

     Computing kpt #:     4
     total cpu time spent up to now is        6.7 secs

     Computing kpt #:     5
     total cpu time spent up to now is        7.2 secs

     Computing kpt #:     6
     total cpu time spent up to now is        7.5 secs

     Computing kpt #:     7
     total cpu time spent up to now is        8.0 secs

     Computing kpt #:     8
     total cpu time spent up to now is        8.4 secs

     Computing kpt #:     9
     total cpu time spent up to now is        8.7 secs

     Computing kpt #:    10
     total cpu time spent up to now is        9.2 secs

     Computing kpt #:    11
     total cpu time spent up to now is        9.6 secs

     Computing kpt #:    12
     total cpu time spent up to now is       10.1 secs

     ethr =  5.00E-10,  avg # of iterations = 20.8

     total cpu time spent up to now is       10.1 secs

     End of band structure calculation

          k = 0.0000 0.0000 0.0000 (  6263 PWs)   bands (ev):

   -10.9360   0.0142   2.5304   2.5304   3.8964   7.1670   8.4171   8.4171

     occupation numbers 
     1.0000   0.0000   0.0000   0.0000   0.0000   0.0000   0.0000   0.0000

          k =-0.3333 0.0000 0.0000 (  6247 PWs)   bands (ev):

    -9.7653   0.8350   3.3066   4.7281   4.7281   6.1204   9.0377  10.1682

     occupation numbers 
     0.0000   0.0000   0.0000   0.0000   0.0000   0.0000   0.0000   0.0000

          k = 0.1667 0.0000 0.0000 (  6279 PWs)   bands (ev):

   -10.5933   0.4576   3.0821   3.0821   4.4526   5.6494   8.3714   8.9670

     occupation numbers 
     1.0000   0.0000   0.0000   0.0000   0.0000   0.0000   0.0000   0.0000

          k =-0.1667 0.0000 0.0000 (  6279 PWs)   bands (ev):

   -10.5933   0.4576   3.0821   3.0821   4.4526   5.6494   8.3714   8.9670

     occupation numbers 
     0.0000   0.0000   0.0000   0.0000   0.0000   0.0000   0.0000   0.0000

          k = 0.3333 0.0000 0.0000 (  6247 PWs)   bands (ev):

    -9.7653   0.8350   3.3066   4.7281   4.7281   6.1204   9.0377  10.1682

     occupation numbers 
     1.0000   0.0000   0.0000   0.0000   0.0000   0.0000   0.0000   0.0000

          k = 0.0000 0.0000 0.0000 (  6263 PWs)   bands (ev):

   -10.9360   0.0142   2.5304   2.5304   3.8964   7.1670   8.4171   8.4171

     occupation numbers 
     0.0000   0.0000   0.0000   0.0000   0.0000   0.0000   0.0000   0.0000

          k =-0.5000 0.0000 0.0000 (  6246 PWs)   bands (ev):

    -9.2371  -0.1217   4.8169   6.1250   7.0093   7.0093   8.0699   8.0699

     occupation numbers 
     1.0000   0.0000   0.0000   0.0000   0.0000   0.0000   0.0000   0.0000

          k =-0.8333 0.0000 0.0000 (  6279 PWs)   bands (ev):

   -10.5933   0.4576   3.0821   3.0821   4.4526   5.6494   8.3714   8.9670

     occupation numbers 
     0.0000   0.0000   0.0000   0.0000   0.0000   0.0000   0.0000   0.0000

          k =-0.1667 0.0000 0.0000 (  6279 PWs)   bands (ev):

   -10.5933   0.4576   3.0821   3.0821   4.4526   5.6494   8.3714   8.9670

     occupation numbers 
     1.0000   0.0000   0.0000   0.0000   0.0000   0.0000   0.0000   0.0000

          k =-0.5000 0.0000 0.0000 (  6246 PWs)   bands (ev):

    -9.2371  -0.1217   4.8169   6.1250   7.0093   7.0093   8.0699   8.0699

     occupation numbers 
     0.0000   0.0000   0.0000   0.0000   0.0000   0.0000   0.0000   0.0000

          k =-0.3333 0.0000 0.0000 (  6247 PWs)   bands (ev):

    -9.7653   0.8350   3.3066   4.7281   4.7281   6.1204   9.0377  10.1682

     occupation numbers 
     1.0000   0.0000   0.0000   0.0000   0.0000   0.0000   0.0000   0.0000

          k =-0.6667 0.0000 0.0000 (  6247 PWs)   bands (ev):

    -9.7653   0.8350   3.3066   4.7281   4.7281   6.1204   9.0377  10.1682

     occupation numbers 
     0.0000   0.0000   0.0000   0.0000   0.0000   0.0000   0.0000   0.0000

     highest occupied, lowest unoccupied level (ev):    -9.2371   -0.1217

     Writing config to output data dir ./_ph0/hchain.save/

     hchain_dvscf                                                               

     bravais-lattice index     =            8
     lattice parameter (alat)  =       5.1779  a.u.
     unit-cell volume          =     517.7850 (a.u.)^3
     number of atoms/cell      =            2
     number of atomic types    =            1
     kinetic-energy cut-off    =      80.0000  Ry
     charge density cut-off    =     320.0000  Ry
     convergence threshold     =      1.0E-12
     beta                      =       0.7000
     number of iterations used =            4
     Exchange-correlation= PBE
                           (   1   4   3   4   0   0   0)


     celldm(1)=    5.17785  celldm(2)=    1.93130  celldm(3)=    1.93130
     celldm(4)=    0.00000  celldm(5)=    0.00000  celldm(6)=    0.00000

     crystal axes: (cart. coord. in units of alat)
               a(1) = (  1.0000  0.0000  0.0000 )  
               a(2) = (  0.0000  1.9313  0.0000 )  
               a(3) = (  0.0000  0.0000  1.9313 )  

     reciprocal axes: (cart. coord. in units 2 pi/alat)
               b(1) = (  1.0000  0.0000  0.0000 )  
               b(2) = (  0.0000  0.5178  0.0000 )  
               b(3) = (  0.0000  0.0000  0.5178 )  


     Atoms inside the unit cell: 

     Cartesian axes

     site n.  atom      mass           positions (alat units)
        1     H    1.0079   tau(    1) = (    0.00000    0.00000    0.00000  )
        2     H    1.0079   tau(    2) = (    0.27007    0.00000    0.00000  )

     Computing dynamical matrix for 
                    q = (  -0.3333333   0.0000000   0.0000000 )

      8 Sym.Ops. (no q -> -q+G )

                                    s                        frac. trans.

      isym =  1     identity                                     

 cryst.   s( 1) = (     1          0          0      )
                  (     0          1          0      )
                  (     0          0          1      )

 cart.    s( 1) = (  1.0000000  0.0000000  0.0000000 )
                  (  0.0000000  1.0000000  0.0000000 )
                  (  0.0000000  0.0000000  1.0000000 )


      isym =  2     180 deg rotation - cart. axis [1,0,0]        

 cryst.   s( 2) = (     1          0          0      )
                  (     0         -1          0      )
                  (     0          0         -1      )

 cart.    s( 2) = (  1.0000000  0.0000000  0.0000000 )
                  (  0.0000000 -1.0000000  0.0000000 )
                  (  0.0000000  0.0000000 -1.0000000 )


      isym =  3      90 deg rotation - cart. axis [-1,0,0]       

 cryst.   s( 3) = (     1          0          0      )
                  (     0          0         -1      )
                  (     0          1          0      )

 cart.    s( 3) = (  1.0000000  0.0000000  0.0000000 )
                  (  0.0000000  0.0000000  1.0000000 )
                  (  0.0000000 -1.0000000  0.0000000 )


      isym =  4      90 deg rotation - cart. axis [1,0,0]        

 cryst.   s( 4) = (     1          0          0      )
                  (     0          0          1      )
                  (     0         -1          0      )

 cart.    s( 4) = (  1.0000000  0.0000000  0.0000000 )
                  (  0.0000000  0.0000000 -1.0000000 )
                  (  0.0000000  1.0000000  0.0000000 )


      isym =  5     inv. 180 deg rotation - cart. axis [0,0,1]   

 cryst.   s( 5) = (     1          0          0      )
                  (     0          1          0      )
                  (     0          0         -1      )

 cart.    s( 5) = (  1.0000000  0.0000000  0.0000000 )
                  (  0.0000000  1.0000000  0.0000000 )
                  (  0.0000000  0.0000000 -1.0000000 )


      isym =  6     inv. 180 deg rotation - cart. axis [0,1,0]   

 cryst.   s( 6) = (     1          0          0      )
                  (     0         -1          0      )
                  (     0          0          1      )

 cart.    s( 6) = (  1.0000000  0.0000000  0.0000000 )
                  (  0.0000000 -1.0000000  0.0000000 )
                  (  0.0000000  0.0000000  1.0000000 )


      isym =  7     inv. 180 deg rotation - cart. axis [0,1,1]   

 cryst.   s( 7) = (     1          0          0      )
                  (     0          0         -1      )
                  (     0         -1          0      )

 cart.    s( 7) = (  1.0000000  0.0000000  0.0000000 )
                  (  0.0000000  0.0000000 -1.0000000 )
                  (  0.0000000 -1.0000000  0.0000000 )


      isym =  8     inv. 180 deg rotation - cart. axis [0,1,-1]  

 cryst.   s( 8) = (     1          0          0      )
                  (     0          0          1      )
                  (     0          1          0      )

 cart.    s( 8) = (  1.0000000  0.0000000  0.0000000 )
                  (  0.0000000  0.0000000  1.0000000 )
                  (  0.0000000  1.0000000  0.0000000 )


     G cutoff =  217.3147  (  49989 G-vectors)     FFT grid: ( 30, 60, 60)
     number of k points=    12
                       cart. coord. in units 2pi/alat
        k(    1) = (   0.0000000   0.0000000   0.0000000), wk =   0.3333333
        k(    2) = (  -0.3333333   0.0000000   0.0000000), wk =   0.0000000
        k(    3) = (   0.1666667   0.0000000   0.0000000), wk =   0.3333333
        k(    4) = (  -0.1666666   0.0000000   0.0000000), wk =   0.0000000
        k(    5) = (   0.3333333   0.0000000   0.0000000), wk =   0.3333333
        k(    6) = (   0.0000000   0.0000000   0.0000000), wk =   0.0000000
        k(    7) = (  -0.5000000   0.0000000   0.0000000), wk =   0.3333333
        k(    8) = (  -0.8333333   0.0000000   0.0000000), wk =   0.0000000
        k(    9) = (  -0.1666667   0.0000000   0.0000000), wk =   0.3333333
        k(   10) = (  -0.5000000   0.0000000   0.0000000), wk =   0.0000000
        k(   11) = (  -0.3333333   0.0000000   0.0000000), wk =   0.3333333
        k(   12) = (  -0.6666666   0.0000000   0.0000000), wk =   0.0000000

                       cryst. coord.
        k(    1) = (   0.0000000   0.0000000   0.0000000), wk =   0.3333333
        k(    2) = (  -0.3333333   0.0000000   0.0000000), wk =   0.0000000
        k(    3) = (   0.1666667   0.0000000   0.0000000), wk =   0.3333333
        k(    4) = (  -0.1666666   0.0000000   0.0000000), wk =   0.0000000
        k(    5) = (   0.3333333   0.0000000   0.0000000), wk =   0.3333333
        k(    6) = (   0.0000000   0.0000000   0.0000000), wk =   0.0000000
        k(    7) = (  -0.5000000   0.0000000   0.0000000), wk =   0.3333333
        k(    8) = (  -0.8333333   0.0000000   0.0000000), wk =   0.0000000
        k(    9) = (  -0.1666667   0.0000000   0.0000000), wk =   0.3333333
        k(   10) = (  -0.5000000   0.0000000   0.0000000), wk =   0.0000000
        k(   11) = (  -0.3333333   0.0000000   0.0000000), wk =   0.3333333
        k(   12) = (  -0.6666666   0.0000000   0.0000000), wk =   0.0000000

     PseudoPot. # 1 for H  read from file:
     ./pseudo/H_ONCV_PBE.upf
     MD5 check sum: e96aa7e3e4a958db16958554ea960e2a
     Pseudo is Norm-conserving, Zval =  1.0
     Generated using ONCVPSP code by D. R. Hamann
     Using radial grid of 1166 points,  3 beta functions with: 
                l(1) =   0
                l(2) =   0
                l(3) =   1

     point group C_4v (4mm) 
     there are  5 classes
     the character table:

       E     2C4   C2    2s_v  2s_d 
A_1    1.00  1.00  1.00  1.00  1.00
A_2    1.00  1.00  1.00 -1.00 -1.00
B_1    1.00 -1.00  1.00  1.00 -1.00
B_2    1.00 -1.00  1.00 -1.00  1.00
E      2.00  0.00 -2.00  0.00  0.00

     the symmetry operations in each class and the name of the first element:

     E        1
          identity                                               
     2C4      3    4
           90 deg rotation - cart. axis [-1,0,0]                 
     C2       2
          180 deg rotation - cart. axis [1,0,0]                  
     2s_v     5    6
          inv. 180 deg rotation - cart. axis [0,0,1]             
     2s_d     7    8
          inv. 180 deg rotation - cart. axis [0,1,1]             


     Atomic displacements:
     There are    4 irreducible representations

     Representation     1      1 modes -  To be done
     Irreps are as follows:

                     mode #   1
                     (  -0.00000  -0.00000   ) 
                     (  -0.00000  -0.00000   ) 
                     (  -0.00000  -0.00000   ) 
                     (  -1.00000  -0.00000   ) 
                     (  -0.00000  -0.00000   ) 
                     (  -0.00000  -0.00000   ) 

     Representation     2      1 modes -  To be done
     Irreps are as follows:

                     mode #   2
                     (  -1.00000  -0.00000   ) 
                     (  -0.00000  -0.00000   ) 
                     (  -0.00000  -0.00000   ) 
                     (  -0.00000  -0.00000   ) 
                     (  -0.00000  -0.00000   ) 
                     (  -0.00000  -0.00000   ) 

     Representation     3      2 modes -  To be done
     Irreps are as follows:

           mode #   3                           mode #   4
           (  -0.00000  -0.00000   )            (  -0.00000  -0.00000   ) 
           (  -1.00000  -0.00000   )            (  -0.00000  -0.00000   ) 
           (  -0.00000  -0.00000   )            (  -1.00000  -0.00000   ) 
           (  -0.00000  -0.00000   )            (  -0.00000  -0.00000   ) 
           (  -0.00000  -0.00000   )            (  -0.00000  -0.00000   ) 
           (  -0.00000  -0.00000   )            (  -0.00000  -0.00000   ) 

     Representation     4      2 modes -  To be done
     Irreps are as follows:

           mode #   5                           mode #   6
           (  -0.00000  -0.00000   )            (  -0.00000  -0.00000   ) 
           (  -0.00000  -0.00000   )            (  -0.00000  -0.00000   ) 
           (  -0.00000  -0.00000   )            (  -0.00000  -0.00000   ) 
           (  -0.00000  -0.00000   )            (  -0.00000  -0.00000   ) 
           (  -1.00000  -0.00000   )            (  -0.00000  -0.00000   ) 
           (  -0.00000  -0.00000   )            (  -1.00000  -0.00000   ) 



     Alpha used in Ewald sum =   2.8000
     PHONON       :     23.30s CPU     23.92s WALL



     Representation #   1 mode #   1

     Self-consistent Calculation

      iter #   1 total cpu time :    24.3 secs   av.it.:   6.8
      thresh= 1.000E-02 alpha_mix =  0.700 |ddv_scf|^2 =  1.963E-07

      iter #   2 total cpu time :    24.6 secs   av.it.:   9.8
      thresh= 4.430E-05 alpha_mix =  0.700 |ddv_scf|^2 =  7.095E-09

      iter #   3 total cpu time :    24.9 secs   av.it.:   9.8
      thresh= 8.423E-06 alpha_mix =  0.700 |ddv_scf|^2 =  4.069E-10

      iter #   4 total cpu time :    25.2 secs   av.it.:   9.0
      thresh= 2.017E-06 alpha_mix =  0.700 |ddv_scf|^2 =  1.076E-10

      iter #   5 total cpu time :    25.5 secs   av.it.:   9.0
      thresh= 1.037E-06 alpha_mix =  0.700 |ddv_scf|^2 =  8.496E-14

     End of self-consistent calculation

     Convergence has been achieved 


     Representation #   2 mode #   2

     Self-consistent Calculation

      iter #   1 total cpu time :    25.9 secs   av.it.:   6.8
      thresh= 1.000E-02 alpha_mix =  0.700 |ddv_scf|^2 =  1.948E-07

      iter #   2 total cpu time :    26.3 secs   av.it.:   9.8
      thresh= 4.413E-05 alpha_mix =  0.700 |ddv_scf|^2 =  7.092E-09

      iter #   3 total cpu time :    26.6 secs   av.it.:   9.8
      thresh= 8.421E-06 alpha_mix =  0.700 |ddv_scf|^2 =  4.324E-10

      iter #   4 total cpu time :    26.9 secs   av.it.:   9.0
      thresh= 2.079E-06 alpha_mix =  0.700 |ddv_scf|^2 =  1.161E-10

      iter #   5 total cpu time :    27.2 secs   av.it.:   9.0
      thresh= 1.077E-06 alpha_mix =  0.700 |ddv_scf|^2 =  8.241E-14

     End of self-consistent calculation

     Convergence has been achieved 


     Representation #   3 modes #   3   4

     Self-consistent Calculation

      iter #   1 total cpu time :    27.8 secs   av.it.:   4.0
      thresh= 1.000E-02 alpha_mix =  0.700 |ddv_scf|^2 =  4.037E-09

      iter #   2 total cpu time :    28.3 secs   av.it.:   7.0
      thresh= 6.353E-06 alpha_mix =  0.700 |ddv_scf|^2 =  1.104E-10

      iter #   3 total cpu time :    28.8 secs   av.it.:   7.0
      thresh= 1.051E-06 alpha_mix =  0.700 |ddv_scf|^2 =  2.806E-12

      iter #   4 total cpu time :    29.3 secs   av.it.:   6.8
      thresh= 1.675E-07 alpha_mix =  0.700 |ddv_scf|^2 =  8.838E-15

     End of self-consistent calculation

     Convergence has been achieved 


     Representation #   4 modes #   5   6

     Self-consistent Calculation

      iter #   1 total cpu time :    29.9 secs   av.it.:   4.0
      thresh= 1.000E-02 alpha_mix =  0.700 |ddv_scf|^2 =  3.996E-09

      iter #   2 total cpu time :    30.4 secs   av.it.:   7.0
      thresh= 6.322E-06 alpha_mix =  0.700 |ddv_scf|^2 =  1.084E-10

      iter #   3 total cpu time :    30.9 secs   av.it.:   7.0
      thresh= 1.041E-06 alpha_mix =  0.700 |ddv_scf|^2 =  2.851E-12

      iter #   4 total cpu time :    31.4 secs   av.it.:   6.8
      thresh= 1.689E-07 alpha_mix =  0.700 |ddv_scf|^2 =  7.298E-15

     End of self-consistent calculation

     Convergence has been achieved 

     Number of q in the star =    1
     List of q in the star:
          1  -0.333333300   0.000000000   0.000000000
     In addition there is the -q list: 
[...]

     occupation numbers 
     0.0000   0.0000   0.0000   0.0000   0.0000   0.0000   0.0000   0.0000

          k = 0.3333 0.0000 0.0000 (  6247 PWs)   bands (ev):

    -9.7653   0.8350   3.3066   4.7281   4.7281   6.1204   9.0377  10.1682

     occupation numbers 
     1.0000   0.0000   0.0000   0.0000   0.0000   0.0000   0.0000   0.0000

          k = 0.8333 0.0000 0.0000 (  6279 PWs)   bands (ev):

   -10.5933   0.4576   3.0821   3.0821   4.4526   5.6494   8.3714   8.9670

     occupation numbers 
     0.0000   0.0000   0.0000   0.0000   0.0000   0.0000   0.0000   0.0000

          k =-0.5000 0.0000 0.0000 (  6246 PWs)   bands (ev):

    -9.2371  -0.1217   4.8169   6.1250   7.0093   7.0093   8.0699   8.0699

     occupation numbers 
     1.0000   0.0000   0.0000   0.0000   0.0000   0.0000   0.0000   0.0000

          k = 0.0000 0.0000 0.0000 (  6263 PWs)   bands (ev):

   -10.9360   0.0142   2.5304   2.5304   3.8964   7.1670   8.4171   8.4171

     occupation numbers 
     0.0000   0.0000   0.0000   0.0000   0.0000   0.0000   0.0000   0.0000

     highest occupied, lowest unoccupied level (ev):    -9.2371   -0.1217

     Writing config to output data dir ./_ph0/hchain.save/

     hchain_dvscf                                                               

     bravais-lattice index     =            8
     lattice parameter (alat)  =       5.1779  a.u.
     unit-cell volume          =     517.7850 (a.u.)^3
     number of atoms/cell      =            2
     number of atomic types    =            1
     kinetic-energy cut-off    =      80.0000  Ry
     charge density cut-off    =     320.0000  Ry
     convergence threshold     =      1.0E-12
     beta                      =       0.7000
     number of iterations used =            4
     Exchange-correlation= PBE
                           (   1   4   3   4   0   0   0)


     celldm(1)=    5.17785  celldm(2)=    1.93130  celldm(3)=    1.93130
     celldm(4)=    0.00000  celldm(5)=    0.00000  celldm(6)=    0.00000

     crystal axes: (cart. coord. in units of alat)
               a(1) = (  1.0000  0.0000  0.0000 )  
               a(2) = (  0.0000  1.9313  0.0000 )  
               a(3) = (  0.0000  0.0000  1.9313 )  

     reciprocal axes: (cart. coord. in units 2 pi/alat)
               b(1) = (  1.0000  0.0000  0.0000 )  
               b(2) = (  0.0000  0.5178  0.0000 )  
               b(3) = (  0.0000  0.0000  0.5178 )  


     Atoms inside the unit cell: 

     Cartesian axes

     site n.  atom      mass           positions (alat units)
        1     H    1.0079   tau(    1) = (    0.00000    0.00000    0.00000  )
        2     H    1.0079   tau(    2) = (    0.27007    0.00000    0.00000  )

     Computing dynamical matrix for 
                    q = (   0.5000000   0.0000000   0.0000000 )

      9 Sym.Ops. (with q -> -q+G )

                                    s                        frac. trans.

      isym =  1     identity                                     

 cryst.   s( 1) = (     1          0          0      )
                  (     0          1          0      )
                  (     0          0          1      )

 cart.    s( 1) = (  1.0000000  0.0000000  0.0000000 )
                  (  0.0000000  1.0000000  0.0000000 )
                  (  0.0000000  0.0000000  1.0000000 )


      isym =  2     180 deg rotation - cart. axis [1,0,0]        

 cryst.   s( 2) = (     1          0          0      )
                  (     0         -1          0      )
                  (     0          0         -1      )

 cart.    s( 2) = (  1.0000000  0.0000000  0.0000000 )
                  (  0.0000000 -1.0000000  0.0000000 )
                  (  0.0000000  0.0000000 -1.0000000 )


      isym =  3      90 deg rotation - cart. axis [-1,0,0]       

 cryst.   s( 3) = (     1          0          0      )
                  (     0          0         -1      )
                  (     0          1          0      )

 cart.    s( 3) = (  1.0000000  0.0000000  0.0000000 )
                  (  0.0000000  0.0000000  1.0000000 )
                  (  0.0000000 -1.0000000  0.0000000 )


      isym =  4      90 deg rotation - cart. axis [1,0,0]        

 cryst.   s( 4) = (     1          0          0      )
                  (     0          0          1      )
                  (     0         -1          0      )

 cart.    s( 4) = (  1.0000000  0.0000000  0.0000000 )
                  (  0.0000000  0.0000000 -1.0000000 )
                  (  0.0000000  1.0000000  0.0000000 )


      isym =  5     inv. 180 deg rotation - cart. axis [0,0,1]   

 cryst.   s( 5) = (     1          0          0      )
                  (     0          1          0      )
                  (     0          0         -1      )

 cart.    s( 5) = (  1.0000000  0.0000000  0.0000000 )
                  (  0.0000000  1.0000000  0.0000000 )
                  (  0.0000000  0.0000000 -1.0000000 )


      isym =  6     inv. 180 deg rotation - cart. axis [0,1,0]   

 cryst.   s( 6) = (     1          0          0      )
                  (     0         -1          0      )
                  (     0          0          1      )

 cart.    s( 6) = (  1.0000000  0.0000000  0.0000000 )
                  (  0.0000000 -1.0000000  0.0000000 )
                  (  0.0000000  0.0000000  1.0000000 )


      isym =  7     inv. 180 deg rotation - cart. axis [0,1,1]   

 cryst.   s( 7) = (     1          0          0      )
                  (     0          0         -1      )
                  (     0         -1          0      )

 cart.    s( 7) = (  1.0000000  0.0000000  0.0000000 )
                  (  0.0000000  0.0000000 -1.0000000 )
                  (  0.0000000 -1.0000000  0.0000000 )


      isym =  8     inv. 180 deg rotation - cart. axis [0,1,-1]  

 cryst.   s( 8) = (     1          0          0      )
                  (     0          0          1      )
                  (     0          1          0      )

 cart.    s( 8) = (  1.0000000  0.0000000  0.0000000 )
                  (  0.0000000  0.0000000  1.0000000 )
                  (  0.0000000  1.0000000  0.0000000 )


     This transformation sends q -> -q+G

      isym =  9     identity                                     

 cryst.   s( 9) = (     1          0          0      )
                  (     0          1          0      )
                  (     0          0          1      )

 cart.    s( 9) = (  1.0000000  0.0000000  0.0000000 )
                  (  0.0000000  1.0000000  0.0000000 )
                  (  0.0000000  0.0000000  1.0000000 )


     G cutoff =  217.3147  (  49989 G-vectors)     FFT grid: ( 30, 60, 60)
     number of k points=     8
                       cart. coord. in units 2pi/alat
        k(    1) = (   0.0000000   0.0000000   0.0000000), wk =   0.3333333
        k(    2) = (   0.5000000   0.0000000   0.0000000), wk =   0.0000000
        k(    3) = (   0.1666667   0.0000000   0.0000000), wk =   0.6666667
        k(    4) = (   0.6666667   0.0000000   0.0000000), wk =   0.0000000
        k(    5) = (   0.3333333   0.0000000   0.0000000), wk =   0.6666667
        k(    6) = (   0.8333333   0.0000000   0.0000000), wk =   0.0000000
        k(    7) = (  -0.5000000   0.0000000   0.0000000), wk =   0.3333333
        k(    8) = (   0.0000000   0.0000000   0.0000000), wk =   0.0000000

                       cryst. coord.
        k(    1) = (   0.0000000   0.0000000   0.0000000), wk =   0.3333333
        k(    2) = (   0.5000000   0.0000000   0.0000000), wk =   0.0000000
        k(    3) = (   0.1666667   0.0000000   0.0000000), wk =   0.6666667
        k(    4) = (   0.6666667   0.0000000   0.0000000), wk =   0.0000000
        k(    5) = (   0.3333333   0.0000000   0.0000000), wk =   0.6666667
        k(    6) = (   0.8333333   0.0000000   0.0000000), wk =   0.0000000
        k(    7) = (  -0.5000000   0.0000000   0.0000000), wk =   0.3333333
        k(    8) = (   0.0000000   0.0000000   0.0000000), wk =   0.0000000

     PseudoPot. # 1 for H  read from file:
     ./pseudo/H_ONCV_PBE.upf
     MD5 check sum: e96aa7e3e4a958db16958554ea960e2a
     Pseudo is Norm-conserving, Zval =  1.0
     Generated using ONCVPSP code by D. R. Hamann
     Using radial grid of 1166 points,  3 beta functions with: 
                l(1) =   0
                l(2) =   0
                l(3) =   1

     point group C_4v (4mm) 
     there are  5 classes
     the character table:

       E     2C4   C2    2s_v  2s_d 
A_1    1.00  1.00  1.00  1.00  1.00
A_2    1.00  1.00  1.00 -1.00 -1.00
B_1    1.00 -1.00  1.00  1.00 -1.00
B_2    1.00 -1.00  1.00 -1.00  1.00
E      2.00  0.00 -2.00  0.00  0.00

     the symmetry operations in each class and the name of the first element:

     E        1
          identity                                               
     2C4      3    4
           90 deg rotation - cart. axis [-1,0,0]                 
     C2       2
          180 deg rotation - cart. axis [1,0,0]                  
     2s_v     5    6
          inv. 180 deg rotation - cart. axis [0,0,1]             
     2s_d     7    8
          inv. 180 deg rotation - cart. axis [0,1,1]             


     Atomic displacements:
     There are    4 irreducible representations

     Representation     1      1 modes -  To be done
     Irreps are as follows:

                     mode #   1
                     (  -0.00000  -0.00000   ) 
                     (  -0.00000  -0.00000   ) 
                     (  -0.00000  -0.00000   ) 
                     (  -1.00000  -0.00000   ) 
                     (  -0.00000  -0.00000   ) 
                     (  -0.00000  -0.00000   ) 

     Representation     2      1 modes -  To be done
     Irreps are as follows:

                     mode #   2
                     (  -1.00000  -0.00000   ) 
                     (  -0.00000  -0.00000   ) 
                     (  -0.00000  -0.00000   ) 
                     (  -0.00000  -0.00000   ) 
                     (  -0.00000  -0.00000   ) 
                     (  -0.00000  -0.00000   ) 

     Representation     3      2 modes -  To be done
     Irreps are as follows:

           mode #   3                           mode #   4
           (  -0.00000  -0.00000   )            (  -0.00000  -0.00000   ) 
           (  -1.00000  -0.00000   )            (  -0.00000  -0.00000   ) 
           (  -0.00000  -0.00000   )            (  -1.00000  -0.00000   ) 
           (  -0.00000  -0.00000   )            (  -0.00000  -0.00000   ) 
           (  -0.00000  -0.00000   )            (  -0.00000  -0.00000   ) 
           (  -0.00000  -0.00000   )            (  -0.00000  -0.00000   ) 

     Representation     4      2 modes -  To be done
     Irreps are as follows:

           mode #   5                           mode #   6
           (  -0.00000  -0.00000   )            (  -0.00000  -0.00000   ) 
           (  -0.00000  -0.00000   )            (  -0.00000  -0.00000   ) 
           (  -0.00000  -0.00000   )            (  -0.00000  -0.00000   ) 
           (  -0.00000  -0.00000   )            (  -0.00000  -0.00000   ) 
           (  -1.00000  -0.00000   )            (  -0.00000  -0.00000   ) 
           (  -0.00000  -0.00000   )            (  -1.00000  -0.00000   ) 



     Alpha used in Ewald sum =   2.8000
     PHONON       :     34.36s CPU     35.28s WALL



     Representation #   1 mode #   1

     Self-consistent Calculation

      iter #   1 total cpu time :    35.6 secs   av.it.:   6.8
      thresh= 1.000E-02 alpha_mix =  0.700 |ddv_scf|^2 =  1.696E-07

      iter #   2 total cpu time :    35.8 secs   av.it.:   9.8
      thresh= 4.118E-05 alpha_mix =  0.700 |ddv_scf|^2 =  4.876E-09

      iter #   3 total cpu time :    36.0 secs   av.it.:   9.8
      thresh= 6.983E-06 alpha_mix =  0.700 |ddv_scf|^2 =  4.114E-10

      iter #   4 total cpu time :    36.2 secs   av.it.:   9.0
      thresh= 2.028E-06 alpha_mix =  0.700 |ddv_scf|^2 =  1.103E-10

      iter #   5 total cpu time :    36.4 secs   av.it.:   9.0
      thresh= 1.050E-06 alpha_mix =  0.700 |ddv_scf|^2 =  6.617E-14

     End of self-consistent calculation

     Convergence has been achieved 


     Representation #   2 mode #   2

     Self-consistent Calculation

      iter #   1 total cpu time :    36.7 secs   av.it.:   6.8
      thresh= 1.000E-02 alpha_mix =  0.700 |ddv_scf|^2 =  1.690E-07

      iter #   2 total cpu time :    36.9 secs   av.it.:   9.8
      thresh= 4.110E-05 alpha_mix =  0.700 |ddv_scf|^2 =  4.998E-09

      iter #   3 total cpu time :    37.1 secs   av.it.:   9.8
      thresh= 7.070E-06 alpha_mix =  0.700 |ddv_scf|^2 =  4.459E-10

      iter #   4 total cpu time :    37.3 secs   av.it.:   9.0
      thresh= 2.112E-06 alpha_mix =  0.700 |ddv_scf|^2 =  1.208E-10

      iter #   5 total cpu time :    37.5 secs   av.it.:   9.0
      thresh= 1.099E-06 alpha_mix =  0.700 |ddv_scf|^2 =  6.067E-14

     End of self-consistent calculation

     Convergence has been achieved 


     Representation #   3 modes #   3   4

     Self-consistent Calculation

      iter #   1 total cpu time :    38.0 secs   av.it.:   4.0
      thresh= 1.000E-02 alpha_mix =  0.700 |ddv_scf|^2 =  3.056E-09

      iter #   2 total cpu time :    38.4 secs   av.it.:   6.8
      thresh= 5.528E-06 alpha_mix =  0.700 |ddv_scf|^2 =  1.043E-10

      iter #   3 total cpu time :    38.8 secs   av.it.:   7.0
      thresh= 1.021E-06 alpha_mix =  0.700 |ddv_scf|^2 =  1.542E-12

      iter #   4 total cpu time :    39.1 secs   av.it.:   6.8
      thresh= 1.242E-07 alpha_mix =  0.700 |ddv_scf|^2 =  1.084E-14

     End of self-consistent calculation

     Convergence has been achieved 


     Representation #   4 modes #   5   6

     Self-consistent Calculation

      iter #   1 total cpu time :    39.6 secs   av.it.:   4.0
      thresh= 1.000E-02 alpha_mix =  0.700 |ddv_scf|^2 =  3.018E-09

      iter #   2 total cpu time :    39.9 secs   av.it.:   6.8
      thresh= 5.494E-06 alpha_mix =  0.700 |ddv_scf|^2 =  1.019E-10

      iter #   3 total cpu time :    40.3 secs   av.it.:   7.0
      thresh= 1.010E-06 alpha_mix =  0.700 |ddv_scf|^2 =  1.562E-12

      iter #   4 total cpu time :    40.6 secs   av.it.:   6.8
      thresh= 1.250E-07 alpha_mix =  0.700 |ddv_scf|^2 =  8.648E-15

     End of self-consistent calculation

     Convergence has been achieved 

     Number of q in the star =    1
     List of q in the star:
          1   0.500000000   0.000000000   0.000000000

     Diagonalizing the dynamical matrix

     q = (    0.500000000   0.000000000   0.000000000 ) 

 **************************************************************************
     freq (    1) =     -15.179953 [THz] =    -506.348722 [cm-1]
     freq (    2) =     -15.179953 [THz] =    -506.348722 [cm-1]
     freq (    3) =      -3.945321 [THz] =    -131.601732 [cm-1]
     freq (    4) =      -3.945321 [THz] =    -131.601732 [cm-1]
     freq (    5) =      13.304450 [THz] =     443.788670 [cm-1]
     freq (    6) =     132.935341 [THz] =    4434.245685 [cm-1]
 **************************************************************************

     Mode symmetry, C_4v (4mm)  point group:

     freq (   1-   2) =       -506.3  [cm-1]   --> E    G_5 D_5       
     freq (   3-   4) =       -131.6  [cm-1]   --> E    G_5 D_5       
     freq (   5-   5) =        443.8  [cm-1]   --> A_1  G_1 D_1       
     freq (   6-   6) =       4434.2  [cm-1]   --> A_1  G_1 D_1       

     PHONON       :     39.48s CPU     40.66s WALL

     INITIALIZATION: 
     phq_setup    :      0.34s CPU      0.38s WALL (       4 calls)
     phq_init     :      1.46s CPU      1.47s WALL (       4 calls)

     phq_init     :      1.46s CPU      1.47s WALL (       4 calls)
     init_vloc    :      0.07s CPU      0.07s WALL (       4 calls)
     init_us_1    :      0.01s CPU      0.01s WALL (       4 calls)
     init_us_2    :      0.54s CPU      0.62s WALL (     584 calls)

     DYNAMICAL MATRIX:
     dynmat0      :      0.25s CPU      0.25s WALL (       4 calls)
     phqscf       :     24.12s CPU     25.18s WALL (       4 calls)
     dynmatrix    :      0.00s CPU      0.00s WALL (       4 calls)

     phqscf       :     24.12s CPU     25.18s WALL (       4 calls)
     solve_linter :     23.63s CPU     24.63s WALL (      16 calls)
     drhodv       :      0.47s CPU      0.51s WALL (      16 calls)

     dynmat0      :      0.25s CPU      0.25s WALL (       4 calls)
     dynmat_us    :      0.20s CPU      0.20s WALL (       4 calls)
     d2ionq       :      0.05s CPU      0.05s WALL (       4 calls)

     dynmat_us    :      0.20s CPU      0.20s WALL (       4 calls)

     phqscf       :     24.12s CPU     25.18s WALL (       4 calls)
     solve_linter :     23.63s CPU     24.63s WALL (      16 calls)

     solve_linter :     23.63s CPU     24.63s WALL (      16 calls)
     dvqpsi_us    :      3.03s CPU      3.06s WALL (     120 calls)
                                        0.00s GPU  (     120 calls)
     sth_kernel   :     14.78s CPU     15.22s WALL (      70 calls)
     h_prec       :      0.02s CPU      0.02s WALL (     352 calls)
     apply_dpot_b :      1.05s CPU      1.17s WALL (     392 calls)
     ortho        :      0.02s CPU      0.03s WALL (     512 calls)
     cgsolve      :     11.89s CPU     12.02s WALL (     512 calls)
     incdrhoscf   :      1.12s CPU      1.19s WALL (     512 calls)
                                        0.00s GPU  (     512 calls)
     dv_of_drho   :      3.17s CPU      3.28s WALL (     102 calls)
     mix_pot      :      0.21s CPU      0.45s WALL (      70 calls)
     psymdvscf    :      2.20s CPU      2.23s WALL (      70 calls)

     dvqpsi_us    :      3.03s CPU      3.06s WALL (     120 calls)
                                        0.00s GPU  (     120 calls)
     dvqpsi_us_on :      0.07s CPU      0.07s WALL (     120 calls)

     cgsolve      :     11.89s CPU     12.02s WALL (     512 calls)
     ch_psi       :     11.61s CPU     11.75s WALL (    3665 calls)

     ch_psi       :     11.61s CPU     11.75s WALL (    3665 calls)
     h_psi        :     22.78s CPU     22.93s WALL (    4401 calls)
     last         :      0.39s CPU      0.39s WALL (    3665 calls)

     h_psi        :     22.78s CPU     22.93s WALL (    4401 calls)
     add_vuspsi   :      0.54s CPU      0.54s WALL (    4401 calls)

     incdrhoscf   :      1.12s CPU      1.19s WALL (     512 calls)
                                        0.00s GPU  (     512 calls)


      General routines
     calbec       :      0.60s CPU      0.62s WALL (    8746 calls)
     fft          :      1.86s CPU      1.90s WALL (    1178 calls)
     ffts         :      0.27s CPU      0.28s WALL (     216 calls)
     fftw         :     20.39s CPU     20.63s WALL (   18890 calls)
     davcio       :      0.48s CPU      0.67s WALL (    2808 calls)
     write_rec    :      0.05s CPU      0.15s WALL (      86 calls)

      Additional routines
     ch_psi       :     11.61s CPU     11.75s WALL (    3665 calls)
     last         :      0.39s CPU      0.39s WALL (    3665 calls)
     Hesh         :      0.13s CPU      0.13s WALL (    3665 calls)
     ch_psi_all_k :      0.25s CPU      0.25s WALL (    3665 calls)
                                        0.00s GPU  (    3665 calls)
     ch_psi_calbe :      0.09s CPU      0.09s WALL (    3665 calls)
                                        0.00s GPU  (    3665 calls)
     h_psi_bgrp   :     22.79s CPU     22.93s WALL (    4401 calls)
     h_psi        :     22.78s CPU     22.93s WALL (    4401 calls)
     h_psi:pot    :     22.54s CPU     22.68s WALL (    4401 calls)
     h_psi:calbec :      0.41s CPU      0.41s WALL (    4401 calls)
     s_psi_bgrp   :      0.03s CPU      0.04s WALL (    7842 calls)


     PHONON       :     39.48s CPU     40.66s WALL


   This run was terminated on:  23:23:56  20Dec2022            

=------------------------------------------------------------------------------=
   JOB DONE.
=------------------------------------------------------------------------------=
