
     Program PHONON v.7.1 starts on 21Dec2022 at 17:57: 4 

     This program is part of the open-source Quantum ESPRESSO suite
     for quantum simulation of materials; please cite
         "P. Giannozzi et al., J. Phys.:Condens. Matter 21 395502 (2009);
         "P. Giannozzi et al., J. Phys.:Condens. Matter 29 465901 (2017);
         "P. Giannozzi et al., J. Chem. Phys. 152 154105 (2020);
          URL http://www.quantum-espresso.org", 
     in publications or presentations arising from this work. More details at
     http://www.quantum-espresso.org/quote

     Parallel version (MPI), running on     1 processors

     MPI processes distributed on     1 nodes
     2846 MiB available memory on the printing compute node when the environment starts

     Waiting for input...
     Reading input from standard input


     Dynamical matrices for q-points given in input
     (   4q-points):
       N         xq(1)         xq(2)         xq(3) 
       1   0.000000000   0.000000000   0.000000000
       2  -0.166666700   0.000000000   0.000000000
       3  -0.333333300   0.000000000   0.000000000
       4   0.500000000   0.000000000   0.000000000

     Reading xml data from directory:

     ./hchain.save/

     Subspace diagonalization in iterative solution of the eigenvalue problem:
     a serial algorithm will be used


     IMPORTANT: XC functional enforced from input :
     Exchange-correlation= PBE
                           (   1   4   3   4   0   0   0)
     Any further DFT definition will be discarded
     Please, verify this is what you really want


     G-vector sticks info
     --------------------
     sticks:   dense  smooth     PW     G-vecs:    dense   smooth      PW
     Sum         661     661    197                17717    17717    2923

     Using Slab Decomposition

     Reading collected, re-writing distributed wavefunctions in ./
  autoval = -.3745E+00
     Irreps are as follows:

                     mode #   1
                     (  -0.00000  -0.00000   ) 
                     (  -0.00000  -0.00000   ) 
                     (  -0.00000  -0.00000   ) 
                     (  -1.00000  -0.00000   ) 
                     (  -0.00000  -0.00000   ) 
                     (  -0.00000  -0.00000   ) 
  autoval = -.1683E+00
     Irreps are as follows:

                     mode #   2
                     (  -0.00000  -0.00000   ) 
                     (  -1.00000  -0.00000   ) 
                     (  -0.00000  -0.00000   ) 
                     (  -0.00000  -0.00000   ) 
                     (  -0.00000  -0.00000   ) 
                     (  -0.00000  -0.00000   ) 
  autoval = -.1683E+00
     Irreps are as follows:

                     mode #   3
                     (  -0.00000  -0.00000   ) 
                     (  -0.00000  -0.00000   ) 
                     (  -1.00000  -0.00000   ) 
                     (  -0.00000  -0.00000   ) 
                     (  -0.00000  -0.00000   ) 
                     (  -0.00000  -0.00000   ) 
  autoval = 0.2011E+00
     Irreps are as follows:

                     mode #   4
                     (  -0.00000  -0.00000   ) 
                     (  -0.00000  -0.00000   ) 
                     (  -0.00000  -0.00000   ) 
                     (  -0.00000  -0.00000   ) 
                     (  -1.00000  -0.00000   ) 
                     (  -0.00000  -0.00000   ) 
  autoval = 0.2011E+00
     Irreps are as follows:

                     mode #   5
                     (  -0.00000  -0.00000   ) 
                     (  -0.00000  -0.00000   ) 
                     (  -0.00000  -0.00000   ) 
                     (  -0.00000  -0.00000   ) 
                     (  -0.00000  -0.00000   ) 
                     (  -1.00000  -0.00000   ) 
  autoval = 0.3260E+01
     Irreps are as follows:

                     mode #   6
                     (  -1.00000  -0.00000   ) 
                     (  -0.00000  -0.00000   ) 
                     (  -0.00000  -0.00000   ) 
                     (  -0.00000  -0.00000   ) 
                     (  -0.00000  -0.00000   ) 
                     (  -0.00000  -0.00000   ) 
  autoval = -.3745E+00
     Irreps are as follows:

                     mode #   1
                     (  -0.00000  -0.00000   ) 
                     (  -0.00000  -0.00000   ) 
                     (  -0.00000  -0.00000   ) 
                     (  -1.00000  -0.00000   ) 
                     (  -0.00000  -0.00000   ) 
                     (  -0.00000  -0.00000   ) 
  autoval = -.1683E+00
     Irreps are as follows:

                     mode #   2
                     (  -0.00000  -0.00000   ) 
                     (  -1.00000  -0.00000   ) 
                     (  -0.00000  -0.00000   ) 
                     (  -0.00000  -0.00000   ) 
                     (  -0.00000  -0.00000   ) 
                     (  -0.00000  -0.00000   ) 
  autoval = -.1683E+00
     Irreps are as follows:

                     mode #   3
                     (  -0.00000  -0.00000   ) 
                     (  -0.00000  -0.00000   ) 
                     (  -1.00000  -0.00000   ) 
                     (  -0.00000  -0.00000   ) 
                     (  -0.00000  -0.00000   ) 
                     (  -0.00000  -0.00000   ) 
  autoval = 0.2011E+00
     Irreps are as follows:

                     mode #   4
                     (  -0.00000  -0.00000   ) 
                     (  -0.00000  -0.00000   ) 
                     (  -0.00000  -0.00000   ) 
                     (  -0.00000  -0.00000   ) 
                     (  -1.00000  -0.00000   ) 
                     (  -0.00000  -0.00000   ) 
  autoval = 0.2011E+00
     Irreps are as follows:

                     mode #   5
                     (  -0.00000  -0.00000   ) 
                     (  -0.00000  -0.00000   ) 
                     (  -0.00000  -0.00000   ) 
                     (  -0.00000  -0.00000   ) 
                     (  -0.00000  -0.00000   ) 
                     (  -1.00000  -0.00000   ) 
  autoval = 0.3260E+01
     Irreps are as follows:

                     mode #   6
                     (  -1.00000  -0.00000   ) 
                     (  -0.00000  -0.00000   ) 
                     (  -0.00000  -0.00000   ) 
                     (  -0.00000  -0.00000   ) 
                     (  -0.00000  -0.00000   ) 
                     (  -0.00000  -0.00000   ) 
  autoval = -.3745E+00
     Irreps are as follows:

                     mode #   1
                     (  -0.00000  -0.00000   ) 
                     (  -0.00000  -0.00000   ) 
                     (  -0.00000  -0.00000   ) 
                     (  -1.00000  -0.00000   ) 
                     (  -0.00000  -0.00000   ) 
                     (  -0.00000  -0.00000   ) 
  autoval = -.1683E+00
     Irreps are as follows:

                     mode #   2
                     (  -0.00000  -0.00000   ) 
                     (  -1.00000  -0.00000   ) 
                     (  -0.00000  -0.00000   ) 
                     (  -0.00000  -0.00000   ) 
                     (  -0.00000  -0.00000   ) 
                     (  -0.00000  -0.00000   ) 
  autoval = -.1683E+00
     Irreps are as follows:

                     mode #   3
                     (  -0.00000  -0.00000   ) 
                     (  -0.00000  -0.00000   ) 
                     (  -1.00000  -0.00000   ) 
                     (  -0.00000  -0.00000   ) 
                     (  -0.00000  -0.00000   ) 
                     (  -0.00000  -0.00000   ) 
  autoval = 0.2011E+00
     Irreps are as follows:

                     mode #   4
                     (  -0.00000  -0.00000   ) 
                     (  -0.00000  -0.00000   ) 
                     (  -0.00000  -0.00000   ) 
                     (  -0.00000  -0.00000   ) 
                     (  -1.00000  -0.00000   ) 
                     (  -0.00000  -0.00000   ) 
  autoval = 0.2011E+00
     Irreps are as follows:

                     mode #   5
                     (  -0.00000  -0.00000   ) 
                     (  -0.00000  -0.00000   ) 
                     (  -0.00000  -0.00000   ) 
                     (  -0.00000  -0.00000   ) 
                     (  -0.00000  -0.00000   ) 
                     (  -1.00000  -0.00000   ) 
  autoval = 0.3260E+01
     Irreps are as follows:

                     mode #   6
                     (  -1.00000  -0.00000   ) 
                     (  -0.00000  -0.00000   ) 
                     (  -0.00000  -0.00000   ) 
                     (  -0.00000  -0.00000   ) 
                     (  -0.00000  -0.00000   ) 
                     (  -0.00000  -0.00000   ) 
  autoval = -.3745E+00
     Irreps are as follows:

                     mode #   1
                     (  -0.00000  -0.00000   ) 
                     (  -0.00000  -0.00000   ) 
                     (  -0.00000  -0.00000   ) 
                     (  -1.00000  -0.00000   ) 
                     (  -0.00000  -0.00000   ) 
                     (  -0.00000  -0.00000   ) 
  autoval = -.1683E+00
     Irreps are as follows:

                     mode #   2
                     (  -0.00000  -0.00000   ) 
                     (  -1.00000  -0.00000   ) 
                     (  -0.00000  -0.00000   ) 
                     (  -0.00000  -0.00000   ) 
                     (  -0.00000  -0.00000   ) 
                     (  -0.00000  -0.00000   ) 
  autoval = -.1683E+00
     Irreps are as follows:

                     mode #   3
                     (  -0.00000  -0.00000   ) 
                     (  -0.00000  -0.00000   ) 
                     (  -1.00000  -0.00000   ) 
                     (  -0.00000  -0.00000   ) 
                     (  -0.00000  -0.00000   ) 
                     (  -0.00000  -0.00000   ) 
  autoval = 0.2011E+00
     Irreps are as follows:

                     mode #   4
                     (  -0.00000  -0.00000   ) 
                     (  -0.00000  -0.00000   ) 
                     (  -0.00000  -0.00000   ) 
                     (  -0.00000  -0.00000   ) 
                     (  -1.00000  -0.00000   ) 
                     (  -0.00000  -0.00000   ) 
  autoval = 0.2011E+00
     Irreps are as follows:

                     mode #   5
                     (  -0.00000  -0.00000   ) 
                     (  -0.00000  -0.00000   ) 
                     (  -0.00000  -0.00000   ) 
                     (  -0.00000  -0.00000   ) 
                     (  -0.00000  -0.00000   ) 
                     (  -1.00000  -0.00000   ) 
  autoval = 0.3260E+01
     Irreps are as follows:

                     mode #   6
                     (  -1.00000  -0.00000   ) 
                     (  -0.00000  -0.00000   ) 
                     (  -0.00000  -0.00000   ) 
                     (  -0.00000  -0.00000   ) 
                     (  -0.00000  -0.00000   ) 
                     (  -0.00000  -0.00000   ) 

     Saving dvscf to file. Distribute only q points, not irreducible represetations.

     Calculation of q =    0.0000000   0.0000000   0.0000000

     hchain_dvscf                                                               

     bravais-lattice index     =            8
     lattice parameter (alat)  =       5.1779  a.u.
     unit-cell volume          =     517.7850 (a.u.)^3
     number of atoms/cell      =            2
     number of atomic types    =            1
     kinetic-energy cut-off    =      40.0000  Ry
     charge density cut-off    =     160.0000  Ry
     convergence threshold     =      1.0E-12
     beta                      =       0.7000
     number of iterations used =            4
     Exchange-correlation= PBE
                           (   1   4   3   4   0   0   0)


     celldm(1)=    5.17785  celldm(2)=    1.93130  celldm(3)=    1.93130
     celldm(4)=    0.00000  celldm(5)=    0.00000  celldm(6)=    0.00000

     crystal axes: (cart. coord. in units of alat)
               a(1) = (  1.0000  0.0000  0.0000 )  
               a(2) = (  0.0000  1.9313  0.0000 )  
               a(3) = (  0.0000  0.0000  1.9313 )  

     reciprocal axes: (cart. coord. in units 2 pi/alat)
               b(1) = (  1.0000  0.0000  0.0000 )  
               b(2) = (  0.0000  0.5178  0.0000 )  
               b(3) = (  0.0000  0.0000  0.5178 )  


     Atoms inside the unit cell: 

     Cartesian axes

     site n.  atom      mass           positions (alat units)
        1     H    1.0079   tau(    1) = (    0.00000    0.00000    0.00000  )
        2     H    1.0079   tau(    2) = (    0.27007    0.00000    0.00000  )

     Computing dynamical matrix for 
                    q = (   0.0000000   0.0000000   0.0000000 )

      9 Sym.Ops. (with q -> -q+G )

                                    s                        frac. trans.

      isym =  1     identity                                     

 cryst.   s( 1) = (     1          0          0      )
                  (     0          1          0      )
                  (     0          0          1      )

 cart.    s( 1) = (  1.0000000  0.0000000  0.0000000 )
                  (  0.0000000  1.0000000  0.0000000 )
                  (  0.0000000  0.0000000  1.0000000 )


      isym =  2     180 deg rotation - cart. axis [1,0,0]        

 cryst.   s( 2) = (     1          0          0      )
                  (     0         -1          0      )
                  (     0          0         -1      )

 cart.    s( 2) = (  1.0000000  0.0000000  0.0000000 )
                  (  0.0000000 -1.0000000  0.0000000 )
                  (  0.0000000  0.0000000 -1.0000000 )


      isym =  3      90 deg rotation - cart. axis [-1,0,0]       

 cryst.   s( 3) = (     1          0          0      )
                  (     0          0         -1      )
                  (     0          1          0      )

 cart.    s( 3) = (  1.0000000  0.0000000  0.0000000 )
                  (  0.0000000  0.0000000  1.0000000 )
                  (  0.0000000 -1.0000000  0.0000000 )


      isym =  4      90 deg rotation - cart. axis [1,0,0]        

 cryst.   s( 4) = (     1          0          0      )
                  (     0          0          1      )
                  (     0         -1          0      )

 cart.    s( 4) = (  1.0000000  0.0000000  0.0000000 )
                  (  0.0000000  0.0000000 -1.0000000 )
                  (  0.0000000  1.0000000  0.0000000 )


      isym =  5     inv. 180 deg rotation - cart. axis [0,0,1]   

 cryst.   s( 5) = (     1          0          0      )
                  (     0          1          0      )
                  (     0          0         -1      )

 cart.    s( 5) = (  1.0000000  0.0000000  0.0000000 )
                  (  0.0000000  1.0000000  0.0000000 )
                  (  0.0000000  0.0000000 -1.0000000 )


      isym =  6     inv. 180 deg rotation - cart. axis [0,1,0]   

 cryst.   s( 6) = (     1          0          0      )
                  (     0         -1          0      )
                  (     0          0          1      )

 cart.    s( 6) = (  1.0000000  0.0000000  0.0000000 )
                  (  0.0000000 -1.0000000  0.0000000 )
                  (  0.0000000  0.0000000  1.0000000 )


      isym =  7     inv. 180 deg rotation - cart. axis [0,1,1]   

 cryst.   s( 7) = (     1          0          0      )
                  (     0          0         -1      )
                  (     0         -1          0      )

 cart.    s( 7) = (  1.0000000  0.0000000  0.0000000 )
                  (  0.0000000  0.0000000 -1.0000000 )
                  (  0.0000000 -1.0000000  0.0000000 )


      isym =  8     inv. 180 deg rotation - cart. axis [0,1,-1]  

 cryst.   s( 8) = (     1          0          0      )
                  (     0          0          1      )
                  (     0          1          0      )

 cart.    s( 8) = (  1.0000000  0.0000000  0.0000000 )
                  (  0.0000000  0.0000000  1.0000000 )
                  (  0.0000000  1.0000000  0.0000000 )


     This transformation sends q -> -q+G

      isym =  9     identity                                     

 cryst.   s( 9) = (     1          0          0      )
                  (     0          1          0      )
                  (     0          0          1      )

 cart.    s( 9) = (  1.0000000  0.0000000  0.0000000 )
                  (  0.0000000  1.0000000  0.0000000 )
                  (  0.0000000  0.0000000  1.0000000 )


     G cutoff =  108.6574  (  17717 G-vectors)     FFT grid: ( 24, 45, 45)
     number of k points=     4
                       cart. coord. in units 2pi/alat
        k(    1) = (   0.0000000   0.0000000   0.0000000), wk =   0.3333333
        k(    2) = (   0.1666667   0.0000000   0.0000000), wk =   0.6666667
        k(    3) = (   0.3333333   0.0000000   0.0000000), wk =   0.6666667
        k(    4) = (  -0.5000000   0.0000000   0.0000000), wk =   0.3333333

                       cryst. coord.
        k(    1) = (   0.0000000   0.0000000   0.0000000), wk =   0.3333333
        k(    2) = (   0.1666667   0.0000000   0.0000000), wk =   0.6666667
        k(    3) = (   0.3333333   0.0000000   0.0000000), wk =   0.6666667
        k(    4) = (  -0.5000000   0.0000000   0.0000000), wk =   0.3333333

     PseudoPot. # 1 for H  read from file:
     ./pseudo/H_ONCV_PBE.upf
     MD5 check sum: e96aa7e3e4a958db16958554ea960e2a
     Pseudo is Norm-conserving, Zval =  1.0
     Generated using ONCVPSP code by D. R. Hamann
     Using radial grid of 1166 points,  3 beta functions with: 
                l(1) =   0
                l(2) =   0
                l(3) =   1

     point group C_4v (4mm) 
     there are  5 classes
     the character table:

       E     2C4   C2    2s_v  2s_d 
A_1    1.00  1.00  1.00  1.00  1.00
A_2    1.00  1.00  1.00 -1.00 -1.00
B_1    1.00 -1.00  1.00  1.00 -1.00
B_2    1.00 -1.00  1.00 -1.00  1.00
E      2.00  0.00 -2.00  0.00  0.00

     the symmetry operations in each class and the name of the first element:

     E        1
                                                                 
     2C4      3    4
                                                                 
     C2       2
                                                                 
     2s_v     5    6
                                                                 
     2s_d     7    8
                                                                 


     Atomic displacements:
     There are    4 irreducible representations

     Representation     1      1 modes -  To be done
     Irreps are as follows:

                     mode #   1
                     (  -0.00000  -0.00000   ) 
                     (  -0.00000  -0.00000   ) 
                     (  -0.00000  -0.00000   ) 
                     (  -1.00000  -0.00000   ) 
                     (  -0.00000  -0.00000   ) 
                     (  -0.00000  -0.00000   ) 

     Representation     2      1 modes -  To be done
     Irreps are as follows:

                     mode #   2
                     (  -1.00000  -0.00000   ) 
                     (  -0.00000  -0.00000   ) 
                     (  -0.00000  -0.00000   ) 
                     (  -0.00000  -0.00000   ) 
                     (  -0.00000  -0.00000   ) 
                     (  -0.00000  -0.00000   ) 

     Representation     3      2 modes -  To be done
     Irreps are as follows:

           mode #   3                           mode #   4
           (  -0.00000  -0.00000   )            (  -0.00000  -0.00000   ) 
           (  -1.00000  -0.00000   )            (  -0.00000  -0.00000   ) 
           (  -0.00000  -0.00000   )            (  -1.00000  -0.00000   ) 
           (  -0.00000  -0.00000   )            (  -0.00000  -0.00000   ) 
           (  -0.00000  -0.00000   )            (  -0.00000  -0.00000   ) 
           (  -0.00000  -0.00000   )            (  -0.00000  -0.00000   ) 

     Representation     4      2 modes -  To be done
     Irreps are as follows:

           mode #   5                           mode #   6
           (  -0.00000  -0.00000   )            (  -0.00000  -0.00000   ) 
           (  -0.00000  -0.00000   )            (  -0.00000  -0.00000   ) 
           (  -0.00000  -0.00000   )            (  -0.00000  -0.00000   ) 
           (  -0.00000  -0.00000   )            (  -0.00000  -0.00000   ) 
           (  -1.00000  -0.00000   )            (  -0.00000  -0.00000   ) 
           (  -0.00000  -0.00000   )            (  -1.00000  -0.00000   ) 



     Alpha used in Ewald sum =   1.9000
     PHONON       :      0.22s CPU      0.24s WALL



     Representation #   1 mode #   1

     Self-consistent Calculation

      iter #   1 total cpu time :     0.3 secs   av.it.:   7.0
      thresh= 1.000E-02 alpha_mix =  0.700 |ddv_scf|^2 =  9.608E-08

      iter #   2 total cpu time :     0.4 secs   av.it.:  10.0
      thresh= 3.100E-05 alpha_mix =  0.700 |ddv_scf|^2 =  1.946E-09

      iter #   3 total cpu time :     0.5 secs   av.it.:   9.0
      thresh= 4.411E-06 alpha_mix =  0.700 |ddv_scf|^2 =  4.788E-10

      iter #   4 total cpu time :     0.6 secs   av.it.:   9.0
      thresh= 2.188E-06 alpha_mix =  0.700 |ddv_scf|^2 =  3.535E-12

      iter #   5 total cpu time :     0.7 secs   av.it.:   7.5
      thresh= 1.880E-07 alpha_mix =  0.700 |ddv_scf|^2 =  9.714E-14

     End of self-consistent calculation

     Convergence has been achieved 


     Representation #   2 mode #   2

     Self-consistent Calculation

      iter #   1 total cpu time :     0.8 secs   av.it.:   7.0
      thresh= 1.000E-02 alpha_mix =  0.700 |ddv_scf|^2 =  9.675E-08

      iter #   2 total cpu time :     0.9 secs   av.it.:  10.0
      thresh= 3.111E-05 alpha_mix =  0.700 |ddv_scf|^2 =  1.260E-09

      iter #   3 total cpu time :     1.0 secs   av.it.:   9.5
      thresh= 3.550E-06 alpha_mix =  0.700 |ddv_scf|^2 =  2.801E-10

      iter #   4 total cpu time :     1.1 secs   av.it.:   9.0
      thresh= 1.674E-06 alpha_mix =  0.700 |ddv_scf|^2 =  5.707E-13

     End of self-consistent calculation

     Convergence has been achieved 


     Representation #   3 modes #   3   4

     Self-consistent Calculation

      iter #   1 total cpu time :     1.3 secs   av.it.:   4.0
      thresh= 1.000E-02 alpha_mix =  0.700 |ddv_scf|^2 =  1.848E-08

      iter #   2 total cpu time :     1.4 secs   av.it.:   6.0
      thresh= 1.359E-05 alpha_mix =  0.700 |ddv_scf|^2 =  5.374E-10

      iter #   3 total cpu time :     1.5 secs   av.it.:   6.2
      thresh= 2.318E-06 alpha_mix =  0.700 |ddv_scf|^2 =  2.106E-11

      iter #   4 total cpu time :     1.7 secs   av.it.:   6.0
      thresh= 4.589E-07 alpha_mix =  0.700 |ddv_scf|^2 =  3.419E-14

     End of self-consistent calculation

     Convergence has been achieved 


     Representation #   4 modes #   5   6

     Self-consistent Calculation

      iter #   1 total cpu time :     1.9 secs   av.it.:   4.0
      thresh= 1.000E-02 alpha_mix =  0.700 |ddv_scf|^2 =  1.685E-08

      iter #   2 total cpu time :     2.0 secs   av.it.:   6.2
      thresh= 1.298E-05 alpha_mix =  0.700 |ddv_scf|^2 =  4.933E-10

      iter #   3 total cpu time :     2.1 secs   av.it.:   6.2
      thresh= 2.221E-06 alpha_mix =  0.700 |ddv_scf|^2 =  2.418E-11

      iter #   4 total cpu time :     2.3 secs   av.it.:   5.8
      thresh= 4.918E-07 alpha_mix =  0.700 |ddv_scf|^2 =  2.591E-14

     End of self-consistent calculation

     Convergence has been achieved 

     Number of q in the star =    1
     List of q in the star:
          1   0.000000000   0.000000000   0.000000000

     Diagonalizing the dynamical matrix

     q = (    0.000000000   0.000000000   0.000000000 ) 

 **************************************************************************
     freq (    1) =     -19.969197 [THz] =    -666.100725 [cm-1]
     freq (    2) =     -19.969197 [THz] =    -666.100725 [cm-1]
     freq (    3) =       2.632996 [THz] =      87.827282 [cm-1]
     freq (    4) =       3.240926 [THz] =     108.105645 [cm-1]
     freq (    5) =       3.240926 [THz] =     108.105645 [cm-1]
     freq (    6) =     133.507016 [THz] =    4453.314704 [cm-1]
 **************************************************************************

     Mode symmetry, C_4v (4mm)  point group:

     freq (   1-   2) =       -666.1  [cm-1]   --> E    G_5 D_5    I+R
     freq (   3-   3) =         87.8  [cm-1]   --> A_1  G_1 D_1    I+R
     freq (   4-   5) =        108.1  [cm-1]   --> E    G_5 D_5    I+R
     freq (   6-   6) =       4453.3  [cm-1]   --> A_1  G_1 D_1    I+R

     Calculation of q =   -0.1666667   0.0000000   0.0000000

     G-vector sticks info
     --------------------
     sticks:   dense  smooth     PW     G-vecs:    dense   smooth      PW
     Sum         661     661    205                17717    17717    3167

     Using Slab Decomposition


     Title: 
     hchain_dvscf                                                               


     bravais-lattice index     =            8
     lattice parameter (alat)  =       5.1779  a.u.
     unit-cell volume          =     517.7850 (a.u.)^3
     number of atoms/cell      =            2
     number of atomic types    =            1
     number of electrons       =         2.00
     number of Kohn-Sham states=            8
     kinetic-energy cutoff     =      40.0000  Ry
     charge density cutoff     =     160.0000  Ry
     Exchange-correlation= PBE
                           (   1   4   3   4   0   0   0)

     celldm(1)=   5.177850  celldm(2)=   1.931304  celldm(3)=   1.931304
     celldm(4)=   0.000000  celldm(5)=   0.000000  celldm(6)=   0.000000

     crystal axes: (cart. coord. in units of alat)
               a(1) = (   1.000000   0.000000   0.000000 )  
               a(2) = (   0.000000   1.931304   0.000000 )  
               a(3) = (   0.000000   0.000000   1.931304 )  

     reciprocal axes: (cart. coord. in units 2 pi/alat)
               b(1) = (  1.000000  0.000000  0.000000 )  
               b(2) = (  0.000000  0.517785  0.000000 )  
               b(3) = (  0.000000  0.000000  0.517785 )  


     PseudoPot. # 1 for H  read from file:
     ./pseudo/H_ONCV_PBE.upf
     MD5 check sum: e96aa7e3e4a958db16958554ea960e2a
     Pseudo is Norm-conserving, Zval =  1.0
     Generated using ONCVPSP code by D. R. Hamann
     Using radial grid of 1166 points,  3 beta functions with: 
                l(1) =   0
                l(2) =   0
                l(3) =   1

     atomic species   valence    mass     pseudopotential
        H              1.00     1.00794     H ( 1.00)

      8 Sym. Ops. (no inversion) found


                                    s                        frac. trans.

      isym =  1     identity                                     

 cryst.   s( 1) = (     1          0          0      )
                  (     0          1          0      )
                  (     0          0          1      )

 cart.    s( 1) = (  1.0000000  0.0000000  0.0000000 )
                  (  0.0000000  1.0000000  0.0000000 )
                  (  0.0000000  0.0000000  1.0000000 )


      isym =  2     180 deg rotation - cart. axis [1,0,0]        

 cryst.   s( 2) = (     1          0          0      )
                  (     0         -1          0      )
                  (     0          0         -1      )

 cart.    s( 2) = (  1.0000000  0.0000000  0.0000000 )
                  (  0.0000000 -1.0000000  0.0000000 )
                  (  0.0000000  0.0000000 -1.0000000 )


      isym =  3      90 deg rotation - cart. axis [-1,0,0]       

 cryst.   s( 3) = (     1          0          0      )
                  (     0          0         -1      )
                  (     0          1          0      )

 cart.    s( 3) = (  1.0000000  0.0000000  0.0000000 )
                  (  0.0000000  0.0000000  1.0000000 )
                  (  0.0000000 -1.0000000  0.0000000 )


      isym =  4      90 deg rotation - cart. axis [1,0,0]        

 cryst.   s( 4) = (     1          0          0      )
                  (     0          0          1      )
                  (     0         -1          0      )

 cart.    s( 4) = (  1.0000000  0.0000000  0.0000000 )
                  (  0.0000000  0.0000000 -1.0000000 )
                  (  0.0000000  1.0000000  0.0000000 )


      isym =  5     inv. 180 deg rotation - cart. axis [0,0,1]   

 cryst.   s( 5) = (     1          0          0      )
                  (     0          1          0      )
                  (     0          0         -1      )

 cart.    s( 5) = (  1.0000000  0.0000000  0.0000000 )
                  (  0.0000000  1.0000000  0.0000000 )
                  (  0.0000000  0.0000000 -1.0000000 )


      isym =  6     inv. 180 deg rotation - cart. axis [0,1,0]   

 cryst.   s( 6) = (     1          0          0      )
                  (     0         -1          0      )
                  (     0          0          1      )

 cart.    s( 6) = (  1.0000000  0.0000000  0.0000000 )
                  (  0.0000000 -1.0000000  0.0000000 )
                  (  0.0000000  0.0000000  1.0000000 )


      isym =  7     inv. 180 deg rotation - cart. axis [0,1,1]   

 cryst.   s( 7) = (     1          0          0      )
                  (     0          0         -1      )
                  (     0         -1          0      )

 cart.    s( 7) = (  1.0000000  0.0000000  0.0000000 )
                  (  0.0000000  0.0000000 -1.0000000 )
                  (  0.0000000 -1.0000000  0.0000000 )


      isym =  8     inv. 180 deg rotation - cart. axis [0,1,-1]  

 cryst.   s( 8) = (     1          0          0      )
                  (     0          0          1      )
                  (     0          1          0      )

 cart.    s( 8) = (  1.0000000  0.0000000  0.0000000 )
                  (  0.0000000  0.0000000  1.0000000 )
                  (  0.0000000  1.0000000  0.0000000 )


     point group C_4v (4mm) 
     there are  5 classes
     the character table:

       E     2C4   C2    2s_v  2s_d 
A_1    1.00  1.00  1.00  1.00  1.00
A_2    1.00  1.00  1.00 -1.00 -1.00
B_1    1.00 -1.00  1.00  1.00 -1.00
B_2    1.00 -1.00  1.00 -1.00  1.00
E      2.00  0.00 -2.00  0.00  0.00

     the symmetry operations in each class and the name of the first element:

     E        1
          identity                                               
     2C4      3    4
           90 deg rotation - cart. axis [-1,0,0]                 
     C2       2
          180 deg rotation - cart. axis [1,0,0]                  
     2s_v     5    6
          inv. 180 deg rotation - cart. axis [0,0,1]             
     2s_d     7    8
          inv. 180 deg rotation - cart. axis [0,1,1]             

   Cartesian axes

     site n.     atom                  positions (alat units)
         1           H   tau(   1) = (   0.0000000   0.0000000   0.0000000  )
         2           H   tau(   2) = (   0.2700730   0.0000000   0.0000000  )

   Crystallographic axes

     site n.     atom                  positions (cryst. coord.)
         1           H   tau(   1) = (  0.0000000  0.0000000  0.0000000  )
         2           H   tau(   2) = (  0.2700730  0.0000000  0.0000000  )

     number of k points=    12
                       cart. coord. in units 2pi/alat
        k(    1) = (   0.0000000   0.0000000   0.0000000), wk =   0.3333333
        k(    2) = (  -0.1666667   0.0000000   0.0000000), wk =   0.0000000
        k(    3) = (   0.1666667   0.0000000   0.0000000), wk =   0.3333333
        k(    4) = (  -0.0000000   0.0000000   0.0000000), wk =   0.0000000
        k(    5) = (   0.3333333   0.0000000   0.0000000), wk =   0.3333333
        k(    6) = (   0.1666666   0.0000000   0.0000000), wk =   0.0000000
        k(    7) = (  -0.5000000   0.0000000   0.0000000), wk =   0.3333333
        k(    8) = (  -0.6666667   0.0000000   0.0000000), wk =   0.0000000
        k(    9) = (  -0.1666667   0.0000000   0.0000000), wk =   0.3333333
        k(   10) = (  -0.3333334   0.0000000   0.0000000), wk =   0.0000000
        k(   11) = (  -0.3333333   0.0000000   0.0000000), wk =   0.3333333
        k(   12) = (  -0.5000000   0.0000000   0.0000000), wk =   0.0000000

                       cryst. coord.
        k(    1) = (   0.0000000   0.0000000   0.0000000), wk =   0.3333333
        k(    2) = (  -0.1666667   0.0000000   0.0000000), wk =   0.0000000
        k(    3) = (   0.1666667   0.0000000   0.0000000), wk =   0.3333333
        k(    4) = (  -0.0000000   0.0000000   0.0000000), wk =   0.0000000
        k(    5) = (   0.3333333   0.0000000   0.0000000), wk =   0.3333333
        k(    6) = (   0.1666666   0.0000000   0.0000000), wk =   0.0000000
        k(    7) = (  -0.5000000   0.0000000   0.0000000), wk =   0.3333333
        k(    8) = (  -0.6666667   0.0000000   0.0000000), wk =   0.0000000
        k(    9) = (  -0.1666667   0.0000000   0.0000000), wk =   0.3333333
        k(   10) = (  -0.3333334   0.0000000   0.0000000), wk =   0.0000000
        k(   11) = (  -0.3333333   0.0000000   0.0000000), wk =   0.3333333
        k(   12) = (  -0.5000000   0.0000000   0.0000000), wk =   0.0000000

     Dense  grid:    17717 G-vectors     FFT dimensions: (  24,  45,  45)

     Dynamical RAM for                 wfc:       0.27 MB

     Dynamical RAM for     wfc (w. buffer):       0.27 MB

     Dynamical RAM for           str. fact:       0.27 MB

     Dynamical RAM for           local pot:       0.01 MB

     Dynamical RAM for          nlocal pot:       0.34 MB

     Dynamical RAM for                qrad:       0.18 MB

     Dynamical RAM for          rho,v,vnew:       1.92 MB

     Dynamical RAM for           G-vectors:       1.15 MB

     Dynamical RAM for          h,s,v(r/c):       0.05 MB

     Dynamical RAM for          <psi|beta>:       0.00 MB

     Dynamical RAM for                 psi:       1.08 MB

     Dynamical RAM for                hpsi:       1.08 MB

     Dynamical RAM for      wfcinit/wfcrot:       0.54 MB

     Estimated static dynamical RAM per process >       6.53 MB

     Estimated max dynamical RAM per process >       8.74 MB

     The potential is recalculated from file :
     ./_ph0/hchain.save/charge-density

     Starting wfcs are    2 atomic +    6 random wfcs

     Band Structure Calculation
     Davidson diagonalization with overlap

     Computing kpt #:     1
     total cpu time spent up to now is        0.2 secs

     Computing kpt #:     2
     total cpu time spent up to now is        0.3 secs

     Computing kpt #:     3
     total cpu time spent up to now is        0.5 secs

     Computing kpt #:     4
     total cpu time spent up to now is        0.6 secs

     Computing kpt #:     5
     total cpu time spent up to now is        0.8 secs

     Computing kpt #:     6
     total cpu time spent up to now is        0.9 secs

     Computing kpt #:     7
     total cpu time spent up to now is        1.1 secs

     Computing kpt #:     8
     total cpu time spent up to now is        1.3 secs

     Computing kpt #:     9
     total cpu time spent up to now is        1.5 secs

     Computing kpt #:    10
     total cpu time spent up to now is        1.6 secs

     Computing kpt #:    11
     total cpu time spent up to now is        1.8 secs

     Computing kpt #:    12
     total cpu time spent up to now is        2.0 secs

     ethr =  5.00E-10,  avg # of iterations = 20.8

     total cpu time spent up to now is        2.0 secs

     End of band structure calculation

          k = 0.0000 0.0000 0.0000 (  2231 PWs)   bands (ev):

   -10.9272   0.0148   2.5265   2.5265   3.8947   7.1665   8.4135   8.4135

     occupation numbers 
     1.0000   0.0000   0.0000   0.0000   0.0000   0.0000   0.0000   0.0000

          k =-0.1667 0.0000 0.0000 (  2183 PWs)   bands (ev):

   -10.5818   0.4587   3.0783   3.0783   4.4509   5.6563   8.3715   8.9634

     occupation numbers 
     0.0000   0.0000   0.0000   0.0000   0.0000   0.0000   0.0000   0.0000

          k = 0.1667 0.0000 0.0000 (  2183 PWs)   bands (ev):

   -10.5818   0.4587   3.0783   3.0783   4.4509   5.6563   8.3715   8.9634

     occupation numbers 
     1.0000   0.0000   0.0000   0.0000   0.0000   0.0000   0.0000   0.0000

          k =-0.0000 0.0000 0.0000 (  2231 PWs)   bands (ev):

   -10.9272   0.0148   2.5265   2.5265   3.8947   7.1665   8.4135   8.4135

     occupation numbers 
     0.0000   0.0000   0.0000   0.0000   0.0000   0.0000   0.0000   0.0000

          k = 0.3333 0.0000 0.0000 (  2214 PWs)   bands (ev):

    -9.7521   0.8369   3.3067   4.7242   4.7242   6.1187   9.0380  10.1667

     occupation numbers 
     1.0000   0.0000   0.0000   0.0000   0.0000   0.0000   0.0000   0.0000

          k = 0.1667 0.0000 0.0000 (  2183 PWs)   bands (ev):

   -10.5818   0.4587   3.0783   3.0783   4.4509   5.6563   8.3715   8.9634

     occupation numbers 
     0.0000   0.0000   0.0000   0.0000   0.0000   0.0000   0.0000   0.0000

          k =-0.5000 0.0000 0.0000 (  2218 PWs)   bands (ev):

    -9.2231  -0.1223   4.8178   6.1243   7.0046   7.0046   8.0670   8.0670

     occupation numbers 
     1.0000   0.0000   0.0000   0.0000   0.0000   0.0000   0.0000   0.0000

          k =-0.6667 0.0000 0.0000 (  2214 PWs)   bands (ev):

    -9.7521   0.8369   3.3067   4.7242   4.7242   6.1187   9.0380  10.1667

     occupation numbers 
     0.0000   0.0000   0.0000   0.0000   0.0000   0.0000   0.0000   0.0000

          k =-0.1667 0.0000 0.0000 (  2183 PWs)   bands (ev):

   -10.5818   0.4587   3.0783   3.0783   4.4509   5.6563   8.3715   8.9634

     occupation numbers 
     1.0000   0.0000   0.0000   0.0000   0.0000   0.0000   0.0000   0.0000

          k =-0.3333 0.0000 0.0000 (  2214 PWs)   bands (ev):

    -9.7521   0.8369   3.3067   4.7242   4.7242   6.1187   9.0380  10.1667

     occupation numbers 
     0.0000   0.0000   0.0000   0.0000   0.0000   0.0000   0.0000   0.0000

          k =-0.3333 0.0000 0.0000 (  2214 PWs)   bands (ev):

    -9.7521   0.8369   3.3067   4.7242   4.7242   6.1187   9.0380  10.1667

     occupation numbers 
     1.0000   0.0000   0.0000   0.0000   0.0000   0.0000   0.0000   0.0000

          k =-0.5000 0.0000 0.0000 (  2218 PWs)   bands (ev):

    -9.2231  -0.1223   4.8178   6.1243   7.0046   7.0046   8.0670   8.0670

     occupation numbers 
     0.0000   0.0000   0.0000   0.0000   0.0000   0.0000   0.0000   0.0000

     highest occupied, lowest unoccupied level (ev):    -9.2231   -0.1223

     Writing config to output data dir ./_ph0/hchain.save/

     hchain_dvscf                                                               

     bravais-lattice index     =            8
     lattice parameter (alat)  =       5.1779  a.u.
     unit-cell volume          =     517.7850 (a.u.)^3
     number of atoms/cell      =            2
     number of atomic types    =            1
     kinetic-energy cut-off    =      40.0000  Ry
     charge density cut-off    =     160.0000  Ry
     convergence threshold     =      1.0E-12
     beta                      =       0.7000
     number of iterations used =            4
     Exchange-correlation= PBE
                           (   1   4   3   4   0   0   0)


     celldm(1)=    5.17785  celldm(2)=    1.93130  celldm(3)=    1.93130
     celldm(4)=    0.00000  celldm(5)=    0.00000  celldm(6)=    0.00000

     crystal axes: (cart. coord. in units of alat)
               a(1) = (  1.0000  0.0000  0.0000 )  
               a(2) = (  0.0000  1.9313  0.0000 )  
               a(3) = (  0.0000  0.0000  1.9313 )  

     reciprocal axes: (cart. coord. in units 2 pi/alat)
               b(1) = (  1.0000  0.0000  0.0000 )  
               b(2) = (  0.0000  0.5178  0.0000 )  
               b(3) = (  0.0000  0.0000  0.5178 )  


     Atoms inside the unit cell: 

     Cartesian axes

     site n.  atom      mass           positions (alat units)
        1     H    1.0079   tau(    1) = (    0.00000    0.00000    0.00000  )
        2     H    1.0079   tau(    2) = (    0.27007    0.00000    0.00000  )

     Computing dynamical matrix for 
                    q = (  -0.1666667   0.0000000   0.0000000 )

      8 Sym.Ops. (no q -> -q+G )

                                    s                        frac. trans.

      isym =  1     identity                                     

 cryst.   s( 1) = (     1          0          0      )
                  (     0          1          0      )
                  (     0          0          1      )

 cart.    s( 1) = (  1.0000000  0.0000000  0.0000000 )
                  (  0.0000000  1.0000000  0.0000000 )
                  (  0.0000000  0.0000000  1.0000000 )


      isym =  2     180 deg rotation - cart. axis [1,0,0]        

 cryst.   s( 2) = (     1          0          0      )
                  (     0         -1          0      )
                  (     0          0         -1      )

 cart.    s( 2) = (  1.0000000  0.0000000  0.0000000 )
                  (  0.0000000 -1.0000000  0.0000000 )
                  (  0.0000000  0.0000000 -1.0000000 )


      isym =  3      90 deg rotation - cart. axis [-1,0,0]       

 cryst.   s( 3) = (     1          0          0      )
                  (     0          0         -1      )
                  (     0          1          0      )

 cart.    s( 3) = (  1.0000000  0.0000000  0.0000000 )
                  (  0.0000000  0.0000000  1.0000000 )
                  (  0.0000000 -1.0000000  0.0000000 )


      isym =  4      90 deg rotation - cart. axis [1,0,0]        

 cryst.   s( 4) = (     1          0          0      )
                  (     0          0          1      )
                  (     0         -1          0      )

 cart.    s( 4) = (  1.0000000  0.0000000  0.0000000 )
                  (  0.0000000  0.0000000 -1.0000000 )
                  (  0.0000000  1.0000000  0.0000000 )


      isym =  5     inv. 180 deg rotation - cart. axis [0,0,1]   

 cryst.   s( 5) = (     1          0          0      )
                  (     0          1          0      )
                  (     0          0         -1      )

 cart.    s( 5) = (  1.0000000  0.0000000  0.0000000 )
                  (  0.0000000  1.0000000  0.0000000 )
                  (  0.0000000  0.0000000 -1.0000000 )


      isym =  6     inv. 180 deg rotation - cart. axis [0,1,0]   

 cryst.   s( 6) = (     1          0          0      )
                  (     0         -1          0      )
                  (     0          0          1      )

 cart.    s( 6) = (  1.0000000  0.0000000  0.0000000 )
                  (  0.0000000 -1.0000000  0.0000000 )
                  (  0.0000000  0.0000000  1.0000000 )


      isym =  7     inv. 180 deg rotation - cart. axis [0,1,1]   

 cryst.   s( 7) = (     1          0          0      )
                  (     0          0         -1      )
                  (     0         -1          0      )

 cart.    s( 7) = (  1.0000000  0.0000000  0.0000000 )
                  (  0.0000000  0.0000000 -1.0000000 )
                  (  0.0000000 -1.0000000  0.0000000 )


      isym =  8     inv. 180 deg rotation - cart. axis [0,1,-1]  

 cryst.   s( 8) = (     1          0          0      )
                  (     0          0          1      )
                  (     0          1          0      )

 cart.    s( 8) = (  1.0000000  0.0000000  0.0000000 )
                  (  0.0000000  0.0000000  1.0000000 )
                  (  0.0000000  1.0000000  0.0000000 )


     G cutoff =  108.6574  (  17717 G-vectors)     FFT grid: ( 24, 45, 45)
     number of k points=    12
                       cart. coord. in units 2pi/alat
        k(    1) = (   0.0000000   0.0000000   0.0000000), wk =   0.3333333
        k(    2) = (  -0.1666667   0.0000000   0.0000000), wk =   0.0000000
        k(    3) = (   0.1666667   0.0000000   0.0000000), wk =   0.3333333
        k(    4) = (  -0.0000000   0.0000000   0.0000000), wk =   0.0000000
        k(    5) = (   0.3333333   0.0000000   0.0000000), wk =   0.3333333
        k(    6) = (   0.1666666   0.0000000   0.0000000), wk =   0.0000000
        k(    7) = (  -0.5000000   0.0000000   0.0000000), wk =   0.3333333
        k(    8) = (  -0.6666667   0.0000000   0.0000000), wk =   0.0000000
        k(    9) = (  -0.1666667   0.0000000   0.0000000), wk =   0.3333333
        k(   10) = (  -0.3333334   0.0000000   0.0000000), wk =   0.0000000
        k(   11) = (  -0.3333333   0.0000000   0.0000000), wk =   0.3333333
        k(   12) = (  -0.5000000   0.0000000   0.0000000), wk =   0.0000000

                       cryst. coord.
        k(    1) = (   0.0000000   0.0000000   0.0000000), wk =   0.3333333
        k(    2) = (  -0.1666667   0.0000000   0.0000000), wk =   0.0000000
        k(    3) = (   0.1666667   0.0000000   0.0000000), wk =   0.3333333
        k(    4) = (  -0.0000000   0.0000000   0.0000000), wk =   0.0000000
        k(    5) = (   0.3333333   0.0000000   0.0000000), wk =   0.3333333
        k(    6) = (   0.1666666   0.0000000   0.0000000), wk =   0.0000000
        k(    7) = (  -0.5000000   0.0000000   0.0000000), wk =   0.3333333
        k(    8) = (  -0.6666667   0.0000000   0.0000000), wk =   0.0000000
        k(    9) = (  -0.1666667   0.0000000   0.0000000), wk =   0.3333333
        k(   10) = (  -0.3333334   0.0000000   0.0000000), wk =   0.0000000
        k(   11) = (  -0.3333333   0.0000000   0.0000000), wk =   0.3333333
        k(   12) = (  -0.5000000   0.0000000   0.0000000), wk =   0.0000000

     PseudoPot. # 1 for H  read from file:
     ./pseudo/H_ONCV_PBE.upf
     MD5 check sum: e96aa7e3e4a958db16958554ea960e2a
     Pseudo is Norm-conserving, Zval =  1.0
     Generated using ONCVPSP code by D. R. Hamann
     Using radial grid of 1166 points,  3 beta functions with: 
                l(1) =   0
                l(2) =   0
                l(3) =   1

     point group C_4v (4mm) 
     there are  5 classes
     the character table:

       E     2C4   C2    2s_v  2s_d 
A_1    1.00  1.00  1.00  1.00  1.00
A_2    1.00  1.00  1.00 -1.00 -1.00
B_1    1.00 -1.00  1.00  1.00 -1.00
B_2    1.00 -1.00  1.00 -1.00  1.00
E      2.00  0.00 -2.00  0.00  0.00

     the symmetry operations in each class and the name of the first element:

     E        1
          identity                                               
     2C4      3    4
           90 deg rotation - cart. axis [-1,0,0]                 
     C2       2
          180 deg rotation - cart. axis [1,0,0]                  
     2s_v     5    6
          inv. 180 deg rotation - cart. axis [0,0,1]             
     2s_d     7    8
          inv. 180 deg rotation - cart. axis [0,1,1]             


     Atomic displacements:
     There are    4 irreducible representations

     Representation     1      1 modes -  To be done
     Irreps are as follows:

                     mode #   1
                     (  -0.00000  -0.00000   ) 
                     (  -0.00000  -0.00000   ) 
                     (  -0.00000  -0.00000   ) 
                     (  -1.00000  -0.00000   ) 
                     (  -0.00000  -0.00000   ) 
                     (  -0.00000  -0.00000   ) 

     Representation     2      1 modes -  To be done
     Irreps are as follows:

                     mode #   2
                     (  -1.00000  -0.00000   ) 
                     (  -0.00000  -0.00000   ) 
                     (  -0.00000  -0.00000   ) 
                     (  -0.00000  -0.00000   ) 
                     (  -0.00000  -0.00000   ) 
                     (  -0.00000  -0.00000   ) 

     Representation     3      2 modes -  To be done
     Irreps are as follows:

           mode #   3                           mode #   4
           (  -0.00000  -0.00000   )            (  -0.00000  -0.00000   ) 
           (  -1.00000  -0.00000   )            (  -0.00000  -0.00000   ) 
           (  -0.00000  -0.00000   )            (  -1.00000  -0.00000   ) 
           (  -0.00000  -0.00000   )            (  -0.00000  -0.00000   ) 
           (  -0.00000  -0.00000   )            (  -0.00000  -0.00000   ) 
           (  -0.00000  -0.00000   )            (  -0.00000  -0.00000   ) 

     Representation     4      2 modes -  To be done
     Irreps are as follows:

           mode #   5                           mode #   6
           (  -0.00000  -0.00000   )            (  -0.00000  -0.00000   ) 
           (  -0.00000  -0.00000   )            (  -0.00000  -0.00000   ) 
           (  -0.00000  -0.00000   )            (  -0.00000  -0.00000   ) 
           (  -0.00000  -0.00000   )            (  -0.00000  -0.00000   ) 
           (  -1.00000  -0.00000   )            (  -0.00000  -0.00000   ) 
           (  -0.00000  -0.00000   )            (  -1.00000  -0.00000   ) 



     Alpha used in Ewald sum =   1.9000
     PHONON       :      4.29s CPU      4.45s WALL



     Representation #   1 mode #   1

     Self-consistent Calculation

      iter #   1 total cpu time :     4.6 secs   av.it.:   6.8
      thresh= 1.000E-02 alpha_mix =  0.700 |ddv_scf|^2 =  9.676E-07

      iter #   2 total cpu time :     4.7 secs   av.it.:   9.3
      thresh= 9.836E-05 alpha_mix =  0.700 |ddv_scf|^2 =  2.506E-08

      iter #   3 total cpu time :     4.8 secs   av.it.:   9.0
      thresh= 1.583E-05 alpha_mix =  0.700 |ddv_scf|^2 =  5.116E-10

      iter #   4 total cpu time :     4.9 secs   av.it.:   9.0
      thresh= 2.262E-06 alpha_mix =  0.700 |ddv_scf|^2 =  1.249E-10

      iter #   5 total cpu time :     5.0 secs   av.it.:   8.7
      thresh= 1.118E-06 alpha_mix =  0.700 |ddv_scf|^2 =  3.897E-13

     End of self-consistent calculation

     Convergence has been achieved 


     Representation #   2 mode #   2

     Self-consistent Calculation

      iter #   1 total cpu time :     5.2 secs   av.it.:   6.8
      thresh= 1.000E-02 alpha_mix =  0.700 |ddv_scf|^2 =  9.615E-07

      iter #   2 total cpu time :     5.3 secs   av.it.:   9.3
      thresh= 9.805E-05 alpha_mix =  0.700 |ddv_scf|^2 =  2.630E-08

      iter #   3 total cpu time :     5.4 secs   av.it.:   9.0
      thresh= 1.622E-05 alpha_mix =  0.700 |ddv_scf|^2 =  4.247E-10

      iter #   4 total cpu time :     5.6 secs   av.it.:   9.0
      thresh= 2.061E-06 alpha_mix =  0.700 |ddv_scf|^2 =  6.953E-11

      iter #   5 total cpu time :     5.7 secs   av.it.:   8.3
      thresh= 8.339E-07 alpha_mix =  0.700 |ddv_scf|^2 =  4.966E-13

     End of self-consistent calculation

     Convergence has been achieved 


     Representation #   3 modes #   3   4

     Self-consistent Calculation

      iter #   1 total cpu time :     5.9 secs   av.it.:   4.0
      thresh= 1.000E-02 alpha_mix =  0.700 |ddv_scf|^2 =  1.553E-08

      iter #   2 total cpu time :     6.1 secs   av.it.:   6.3
      thresh= 1.246E-05 alpha_mix =  0.700 |ddv_scf|^2 =  5.625E-10

      iter #   3 total cpu time :     6.3 secs   av.it.:   6.3
      thresh= 2.372E-06 alpha_mix =  0.700 |ddv_scf|^2 =  1.746E-11

      iter #   4 total cpu time :     6.4 secs   av.it.:   6.0
      thresh= 4.178E-07 alpha_mix =  0.700 |ddv_scf|^2 =  3.646E-14

     End of self-consistent calculation

     Convergence has been achieved 


     Representation #   4 modes #   5   6

     Self-consistent Calculation

      iter #   1 total cpu time :     6.7 secs   av.it.:   4.0
      thresh= 1.000E-02 alpha_mix =  0.700 |ddv_scf|^2 =  1.385E-08

      iter #   2 total cpu time :     6.9 secs   av.it.:   6.3
      thresh= 1.177E-05 alpha_mix =  0.700 |ddv_scf|^2 =  5.196E-10

      iter #   3 total cpu time :     7.1 secs   av.it.:   6.3
      thresh= 2.280E-06 alpha_mix =  0.700 |ddv_scf|^2 =  2.135E-11

      iter #   4 total cpu time :     7.2 secs   av.it.:   6.0
      thresh= 4.620E-07 alpha_mix =  0.700 |ddv_scf|^2 =  2.582E-14

     End of self-consistent calculation

     Convergence has been achieved 

     Number of q in the star =    1
     List of q in the star:
          1  -0.166666700   0.000000000   0.000000000
     In addition there is the -q list: 
          1   0.166666700  -0.000000000  -0.000000000

     Diagonalizing the dynamical matrix

     q = (   -0.166666700   0.000000000   0.000000000 ) 

 **************************************************************************
     freq (    1) =     -19.590088 [THz] =    -653.454999 [cm-1]
     freq (    2) =     -19.590088 [THz] =    -653.454999 [cm-1]
     freq (    3) =       1.391632 [THz] =      46.419833 [cm-1]
     freq (    4) =       1.391632 [THz] =      46.419833 [cm-1]
     freq (    5) =       6.794543 [THz] =     226.641545 [cm-1]
     freq (    6) =     133.631495 [THz] =    4457.466873 [cm-1]
 **************************************************************************

     Mode symmetry, C_4v (4mm)  point group:

     freq (   1-   2) =       -653.5  [cm-1]   --> E    G_5 D_5       
     freq (   3-   4) =         46.4  [cm-1]   --> E    G_5 D_5       
     freq (   5-   5) =        226.6  [cm-1]   --> A_1  G_1 D_1       
     freq (   6-   6) =       4457.5  [cm-1]   --> A_1  G_1 D_1       

     Calculation of q =   -0.3333333   0.0000000   0.0000000

     G-vector sticks info
     --------------------
     sticks:   dense  smooth     PW     G-vecs:    dense   smooth      PW
     Sum         661     661    223                17717    17717    3449

     Using Slab Decomposition


     Title: 
     hchain_dvscf                                                               


     bravais-lattice index     =            8
     lattice parameter (alat)  =       5.1779  a.u.
     unit-cell volume          =     517.7850 (a.u.)^3
     number of atoms/cell      =            2
     number of atomic types    =            1
     number of electrons       =         2.00
     number of Kohn-Sham states=            8
     kinetic-energy cutoff     =      40.0000  Ry
     charge density cutoff     =     160.0000  Ry
     Exchange-correlation= PBE
                           (   1   4   3   4   0   0   0)

     celldm(1)=   5.177850  celldm(2)=   1.931304  celldm(3)=   1.931304
     celldm(4)=   0.000000  celldm(5)=   0.000000  celldm(6)=   0.000000

     crystal axes: (cart. coord. in units of alat)
               a(1) = (   1.000000   0.000000   0.000000 )  
               a(2) = (   0.000000   1.931304   0.000000 )  
               a(3) = (   0.000000   0.000000   1.931304 )  

     reciprocal axes: (cart. coord. in units 2 pi/alat)
               b(1) = (  1.000000  0.000000  0.000000 )  
               b(2) = (  0.000000  0.517785  0.000000 )  
               b(3) = (  0.000000  0.000000  0.517785 )  


     PseudoPot. # 1 for H  read from file:
     ./pseudo/H_ONCV_PBE.upf
     MD5 check sum: e96aa7e3e4a958db16958554ea960e2a
     Pseudo is Norm-conserving, Zval =  1.0
     Generated using ONCVPSP code by D. R. Hamann
     Using radial grid of 1166 points,  3 beta functions with: 
                l(1) =   0
                l(2) =   0
                l(3) =   1

     atomic species   valence    mass     pseudopotential
        H              1.00     1.00794     H ( 1.00)

      8 Sym. Ops. (no inversion) found


                                    s                        frac. trans.

      isym =  1     identity                                     

 cryst.   s( 1) = (     1          0          0      )
                  (     0          1          0      )
                  (     0          0          1      )

 cart.    s( 1) = (  1.0000000  0.0000000  0.0000000 )
                  (  0.0000000  1.0000000  0.0000000 )
                  (  0.0000000  0.0000000  1.0000000 )


      isym =  2     180 deg rotation - cart. axis [1,0,0]        

 cryst.   s( 2) = (     1          0          0      )
                  (     0         -1          0      )
                  (     0          0         -1      )

 cart.    s( 2) = (  1.0000000  0.0000000  0.0000000 )
                  (  0.0000000 -1.0000000  0.0000000 )
                  (  0.0000000  0.0000000 -1.0000000 )


      isym =  3      90 deg rotation - cart. axis [-1,0,0]       

 cryst.   s( 3) = (     1          0          0      )
                  (     0          0         -1      )
                  (     0          1          0      )

 cart.    s( 3) = (  1.0000000  0.0000000  0.0000000 )
                  (  0.0000000  0.0000000  1.0000000 )
                  (  0.0000000 -1.0000000  0.0000000 )


      isym =  4      90 deg rotation - cart. axis [1,0,0]        

 cryst.   s( 4) = (     1          0          0      )
                  (     0          0          1      )
                  (     0         -1          0      )

 cart.    s( 4) = (  1.0000000  0.0000000  0.0000000 )
                  (  0.0000000  0.0000000 -1.0000000 )
                  (  0.0000000  1.0000000  0.0000000 )


      isym =  5     inv. 180 deg rotation - cart. axis [0,0,1]   

 cryst.   s( 5) = (     1          0          0      )
                  (     0          1          0      )
                  (     0          0         -1      )

 cart.    s( 5) = (  1.0000000  0.0000000  0.0000000 )
                  (  0.0000000  1.0000000  0.0000000 )
                  (  0.0000000  0.0000000 -1.0000000 )


      isym =  6     inv. 180 deg rotation - cart. axis [0,1,0]   

 cryst.   s( 6) = (     1          0          0      )
                  (     0         -1          0      )
                  (     0          0          1      )

 cart.    s( 6) = (  1.0000000  0.0000000  0.0000000 )
                  (  0.0000000 -1.0000000  0.0000000 )
                  (  0.0000000  0.0000000  1.0000000 )


      isym =  7     inv. 180 deg rotation - cart. axis [0,1,1]   

 cryst.   s( 7) = (     1          0          0      )
                  (     0          0         -1      )
                  (     0         -1          0      )

 cart.    s( 7) = (  1.0000000  0.0000000  0.0000000 )
                  (  0.0000000  0.0000000 -1.0000000 )
                  (  0.0000000 -1.0000000  0.0000000 )


      isym =  8     inv. 180 deg rotation - cart. axis [0,1,-1]  

 cryst.   s( 8) = (     1          0          0      )
                  (     0          0          1      )
                  (     0          1          0      )

 cart.    s( 8) = (  1.0000000  0.0000000  0.0000000 )
                  (  0.0000000  0.0000000  1.0000000 )
                  (  0.0000000  1.0000000  0.0000000 )


     point group C_4v (4mm) 
     there are  5 classes
     the character table:

       E     2C4   C2    2s_v  2s_d 
A_1    1.00  1.00  1.00  1.00  1.00
A_2    1.00  1.00  1.00 -1.00 -1.00
B_1    1.00 -1.00  1.00  1.00 -1.00
B_2    1.00 -1.00  1.00 -1.00  1.00
E      2.00  0.00 -2.00  0.00  0.00

     the symmetry operations in each class and the name of the first element:

     E        1
          identity                                               
     2C4      3    4
           90 deg rotation - cart. axis [-1,0,0]                 
     C2       2
          180 deg rotation - cart. axis [1,0,0]                  
     2s_v     5    6
          inv. 180 deg rotation - cart. axis [0,0,1]             
     2s_d     7    8
          inv. 180 deg rotation - cart. axis [0,1,1]             

   Cartesian axes

     site n.     atom                  positions (alat units)
         1           H   tau(   1) = (   0.0000000   0.0000000   0.0000000  )
         2           H   tau(   2) = (   0.2700730   0.0000000   0.0000000  )

   Crystallographic axes

     site n.     atom                  positions (cryst. coord.)
         1           H   tau(   1) = (  0.0000000  0.0000000  0.0000000  )
         2           H   tau(   2) = (  0.2700730  0.0000000  0.0000000  )

     number of k points=    12
                       cart. coord. in units 2pi/alat
        k(    1) = (   0.0000000   0.0000000   0.0000000), wk =   0.3333333
        k(    2) = (  -0.3333333   0.0000000   0.0000000), wk =   0.0000000
        k(    3) = (   0.1666667   0.0000000   0.0000000), wk =   0.3333333
        k(    4) = (  -0.1666666   0.0000000   0.0000000), wk =   0.0000000
        k(    5) = (   0.3333333   0.0000000   0.0000000), wk =   0.3333333
        k(    6) = (   0.0000000   0.0000000   0.0000000), wk =   0.0000000
        k(    7) = (  -0.5000000   0.0000000   0.0000000), wk =   0.3333333
        k(    8) = (  -0.8333333   0.0000000   0.0000000), wk =   0.0000000
        k(    9) = (  -0.1666667   0.0000000   0.0000000), wk =   0.3333333
        k(   10) = (  -0.5000000   0.0000000   0.0000000), wk =   0.0000000
        k(   11) = (  -0.3333333   0.0000000   0.0000000), wk =   0.3333333
        k(   12) = (  -0.6666666   0.0000000   0.0000000), wk =   0.0000000

                       cryst. coord.
        k(    1) = (   0.0000000   0.0000000   0.0000000), wk =   0.3333333
        k(    2) = (  -0.3333333   0.0000000   0.0000000), wk =   0.0000000
        k(    3) = (   0.1666667   0.0000000   0.0000000), wk =   0.3333333
        k(    4) = (  -0.1666666   0.0000000   0.0000000), wk =   0.0000000
        k(    5) = (   0.3333333   0.0000000   0.0000000), wk =   0.3333333
        k(    6) = (   0.0000000   0.0000000   0.0000000), wk =   0.0000000
        k(    7) = (  -0.5000000   0.0000000   0.0000000), wk =   0.3333333
        k(    8) = (  -0.8333333   0.0000000   0.0000000), wk =   0.0000000
        k(    9) = (  -0.1666667   0.0000000   0.0000000), wk =   0.3333333
        k(   10) = (  -0.5000000   0.0000000   0.0000000), wk =   0.0000000
        k(   11) = (  -0.3333333   0.0000000   0.0000000), wk =   0.3333333
        k(   12) = (  -0.6666666   0.0000000   0.0000000), wk =   0.0000000

     Dense  grid:    17717 G-vectors     FFT dimensions: (  24,  45,  45)

     Dynamical RAM for                 wfc:       0.27 MB

     Dynamical RAM for     wfc (w. buffer):       0.27 MB

     Dynamical RAM for           str. fact:       0.27 MB

     Dynamical RAM for           local pot:       0.01 MB

     Dynamical RAM for          nlocal pot:       0.34 MB

     Dynamical RAM for                qrad:       0.18 MB

     Dynamical RAM for          rho,v,vnew:       1.92 MB

     Dynamical RAM for           G-vectors:       1.15 MB

     Dynamical RAM for          h,s,v(r/c):       0.05 MB

     Dynamical RAM for          <psi|beta>:       0.00 MB

     Dynamical RAM for                 psi:       1.08 MB

     Dynamical RAM for                hpsi:       1.08 MB

     Dynamical RAM for      wfcinit/wfcrot:       0.54 MB

     Estimated static dynamical RAM per process >       6.53 MB

     Estimated max dynamical RAM per process >       8.74 MB

     The potential is recalculated from file :
     ./_ph0/hchain.save/charge-density

     Starting wfcs are    2 atomic +    6 random wfcs

     Band Structure Calculation
     Davidson diagonalization with overlap

     Computing kpt #:     1
     total cpu time spent up to now is        2.2 secs

     Computing kpt #:     2
     total cpu time spent up to now is        2.4 secs

     Computing kpt #:     3
     total cpu time spent up to now is        2.5 secs

     Computing kpt #:     4
     total cpu time spent up to now is        2.7 secs

     Computing kpt #:     5
     total cpu time spent up to now is        2.8 secs

     Computing kpt #:     6
     total cpu time spent up to now is        3.0 secs

     Computing kpt #:     7
     total cpu time spent up to now is        3.2 secs

     Computing kpt #:     8
     total cpu time spent up to now is        3.3 secs

     Computing kpt #:     9
     total cpu time spent up to now is        3.5 secs

     Computing kpt #:    10
     total cpu time spent up to now is        3.7 secs

     Computing kpt #:    11
     total cpu time spent up to now is        3.9 secs

     Computing kpt #:    12
     total cpu time spent up to now is        4.0 secs

     ethr =  5.00E-10,  avg # of iterations = 20.8

     total cpu time spent up to now is        4.0 secs

     End of band structure calculation

          k = 0.0000 0.0000 0.0000 (  2231 PWs)   bands (ev):

   -10.9272   0.0148   2.5265   2.5265   3.8947   7.1665   8.4135   8.4135

     occupation numbers 
     1.0000   0.0000   0.0000   0.0000   0.0000   0.0000   0.0000   0.0000

          k =-0.3333 0.0000 0.0000 (  2214 PWs)   bands (ev):

    -9.7521   0.8369   3.3067   4.7242   4.7242   6.1187   9.0380  10.1667

     occupation numbers 
     0.0000   0.0000   0.0000   0.0000   0.0000   0.0000   0.0000   0.0000

          k = 0.1667 0.0000 0.0000 (  2183 PWs)   bands (ev):

   -10.5818   0.4587   3.0783   3.0783   4.4509   5.6563   8.3715   8.9634

     occupation numbers 
     1.0000   0.0000   0.0000   0.0000   0.0000   0.0000   0.0000   0.0000

          k =-0.1667 0.0000 0.0000 (  2183 PWs)   bands (ev):

   -10.5818   0.4587   3.0783   3.0783   4.4509   5.6563   8.3715   8.9634

     occupation numbers 
     0.0000   0.0000   0.0000   0.0000   0.0000   0.0000   0.0000   0.0000

          k = 0.3333 0.0000 0.0000 (  2214 PWs)   bands (ev):

    -9.7521   0.8369   3.3067   4.7242   4.7242   6.1187   9.0380  10.1667

     occupation numbers 
     1.0000   0.0000   0.0000   0.0000   0.0000   0.0000   0.0000   0.0000

          k = 0.0000 0.0000 0.0000 (  2231 PWs)   bands (ev):

   -10.9272   0.0148   2.5265   2.5265   3.8947   7.1665   8.4135   8.4135

     occupation numbers 
     0.0000   0.0000   0.0000   0.0000   0.0000   0.0000   0.0000   0.0000

          k =-0.5000 0.0000 0.0000 (  2218 PWs)   bands (ev):

    -9.2231  -0.1223   4.8178   6.1243   7.0046   7.0046   8.0670   8.0670

     occupation numbers 
     1.0000   0.0000   0.0000   0.0000   0.0000   0.0000   0.0000   0.0000

          k =-0.8333 0.0000 0.0000 (  2183 PWs)   bands (ev):

   -10.5818   0.4587   3.0783   3.0783   4.4509   5.6563   8.3715   8.9634

     occupation numbers 
     0.0000   0.0000   0.0000   0.0000   0.0000   0.0000   0.0000   0.0000

          k =-0.1667 0.0000 0.0000 (  2183 PWs)   bands (ev):

   -10.5818   0.4587   3.0783   3.0783   4.4509   5.6563   8.3715   8.9634

     occupation numbers 
     1.0000   0.0000   0.0000   0.0000   0.0000   0.0000   0.0000   0.0000

          k =-0.5000 0.0000 0.0000 (  2218 PWs)   bands (ev):

    -9.2231  -0.1223   4.8178   6.1243   7.0046   7.0046   8.0670   8.0670

     occupation numbers 
     0.0000   0.0000   0.0000   0.0000   0.0000   0.0000   0.0000   0.0000

          k =-0.3333 0.0000 0.0000 (  2214 PWs)   bands (ev):

    -9.7521   0.8369   3.3067   4.7242   4.7242   6.1187   9.0380  10.1667

     occupation numbers 
     1.0000   0.0000   0.0000   0.0000   0.0000   0.0000   0.0000   0.0000

          k =-0.6667 0.0000 0.0000 (  2214 PWs)   bands (ev):

    -9.7521   0.8369   3.3067   4.7242   4.7242   6.1187   9.0380  10.1667

     occupation numbers 
     0.0000   0.0000   0.0000   0.0000   0.0000   0.0000   0.0000   0.0000

     highest occupied, lowest unoccupied level (ev):    -9.2231   -0.1223

     Writing config to output data dir ./_ph0/hchain.save/

     hchain_dvscf                                                               

     bravais-lattice index     =            8
     lattice parameter (alat)  =       5.1779  a.u.
     unit-cell volume          =     517.7850 (a.u.)^3
     number of atoms/cell      =            2
     number of atomic types    =            1
     kinetic-energy cut-off    =      40.0000  Ry
     charge density cut-off    =     160.0000  Ry
     convergence threshold     =      1.0E-12
     beta                      =       0.7000
     number of iterations used =            4
     Exchange-correlation= PBE
                           (   1   4   3   4   0   0   0)


     celldm(1)=    5.17785  celldm(2)=    1.93130  celldm(3)=    1.93130
     celldm(4)=    0.00000  celldm(5)=    0.00000  celldm(6)=    0.00000

     crystal axes: (cart. coord. in units of alat)
               a(1) = (  1.0000  0.0000  0.0000 )  
               a(2) = (  0.0000  1.9313  0.0000 )  
               a(3) = (  0.0000  0.0000  1.9313 )  

     reciprocal axes: (cart. coord. in units 2 pi/alat)
               b(1) = (  1.0000  0.0000  0.0000 )  
               b(2) = (  0.0000  0.5178  0.0000 )  
               b(3) = (  0.0000  0.0000  0.5178 )  


     Atoms inside the unit cell: 

     Cartesian axes

     site n.  atom      mass           positions (alat units)
        1     H    1.0079   tau(    1) = (    0.00000    0.00000    0.00000  )
        2     H    1.0079   tau(    2) = (    0.27007    0.00000    0.00000  )

     Computing dynamical matrix for 
                    q = (  -0.3333333   0.0000000   0.0000000 )

      8 Sym.Ops. (no q -> -q+G )

                                    s                        frac. trans.

      isym =  1     identity                                     

 cryst.   s( 1) = (     1          0          0      )
                  (     0          1          0      )
                  (     0          0          1      )

 cart.    s( 1) = (  1.0000000  0.0000000  0.0000000 )
                  (  0.0000000  1.0000000  0.0000000 )
                  (  0.0000000  0.0000000  1.0000000 )


      isym =  2     180 deg rotation - cart. axis [1,0,0]        

 cryst.   s( 2) = (     1          0          0      )
                  (     0         -1          0      )
                  (     0          0         -1      )

 cart.    s( 2) = (  1.0000000  0.0000000  0.0000000 )
                  (  0.0000000 -1.0000000  0.0000000 )
                  (  0.0000000  0.0000000 -1.0000000 )


      isym =  3      90 deg rotation - cart. axis [-1,0,0]       

 cryst.   s( 3) = (     1          0          0      )
                  (     0          0         -1      )
                  (     0          1          0      )

 cart.    s( 3) = (  1.0000000  0.0000000  0.0000000 )
                  (  0.0000000  0.0000000  1.0000000 )
                  (  0.0000000 -1.0000000  0.0000000 )


      isym =  4      90 deg rotation - cart. axis [1,0,0]        

 cryst.   s( 4) = (     1          0          0      )
                  (     0          0          1      )
                  (     0         -1          0      )

 cart.    s( 4) = (  1.0000000  0.0000000  0.0000000 )
                  (  0.0000000  0.0000000 -1.0000000 )
                  (  0.0000000  1.0000000  0.0000000 )


      isym =  5     inv. 180 deg rotation - cart. axis [0,0,1]   

 cryst.   s( 5) = (     1          0          0      )
                  (     0          1          0      )
                  (     0          0         -1      )

 cart.    s( 5) = (  1.0000000  0.0000000  0.0000000 )
                  (  0.0000000  1.0000000  0.0000000 )
                  (  0.0000000  0.0000000 -1.0000000 )


      isym =  6     inv. 180 deg rotation - cart. axis [0,1,0]   

 cryst.   s( 6) = (     1          0          0      )
                  (     0         -1          0      )
                  (     0          0          1      )

 cart.    s( 6) = (  1.0000000  0.0000000  0.0000000 )
                  (  0.0000000 -1.0000000  0.0000000 )
                  (  0.0000000  0.0000000  1.0000000 )


      isym =  7     inv. 180 deg rotation - cart. axis [0,1,1]   

 cryst.   s( 7) = (     1          0          0      )
                  (     0          0         -1      )
                  (     0         -1          0      )

 cart.    s( 7) = (  1.0000000  0.0000000  0.0000000 )
                  (  0.0000000  0.0000000 -1.0000000 )
                  (  0.0000000 -1.0000000  0.0000000 )


      isym =  8     inv. 180 deg rotation - cart. axis [0,1,-1]  

 cryst.   s( 8) = (     1          0          0      )
                  (     0          0          1      )
                  (     0          1          0      )

 cart.    s( 8) = (  1.0000000  0.0000000  0.0000000 )
                  (  0.0000000  0.0000000  1.0000000 )
                  (  0.0000000  1.0000000  0.0000000 )


     G cutoff =  108.6574  (  17717 G-vectors)     FFT grid: ( 24, 45, 45)
     number of k points=    12
                       cart. coord. in units 2pi/alat
        k(    1) = (   0.0000000   0.0000000   0.0000000), wk =   0.3333333
        k(    2) = (  -0.3333333   0.0000000   0.0000000), wk =   0.0000000
        k(    3) = (   0.1666667   0.0000000   0.0000000), wk =   0.3333333
        k(    4) = (  -0.1666666   0.0000000   0.0000000), wk =   0.0000000
        k(    5) = (   0.3333333   0.0000000   0.0000000), wk =   0.3333333
        k(    6) = (   0.0000000   0.0000000   0.0000000), wk =   0.0000000
        k(    7) = (  -0.5000000   0.0000000   0.0000000), wk =   0.3333333
        k(    8) = (  -0.8333333   0.0000000   0.0000000), wk =   0.0000000
        k(    9) = (  -0.1666667   0.0000000   0.0000000), wk =   0.3333333
        k(   10) = (  -0.5000000   0.0000000   0.0000000), wk =   0.0000000
        k(   11) = (  -0.3333333   0.0000000   0.0000000), wk =   0.3333333
        k(   12) = (  -0.6666666   0.0000000   0.0000000), wk =   0.0000000

                       cryst. coord.
        k(    1) = (   0.0000000   0.0000000   0.0000000), wk =   0.3333333
        k(    2) = (  -0.3333333   0.0000000   0.0000000), wk =   0.0000000
        k(    3) = (   0.1666667   0.0000000   0.0000000), wk =   0.3333333
        k(    4) = (  -0.1666666   0.0000000   0.0000000), wk =   0.0000000
        k(    5) = (   0.3333333   0.0000000   0.0000000), wk =   0.3333333
        k(    6) = (   0.0000000   0.0000000   0.0000000), wk =   0.0000000
        k(    7) = (  -0.5000000   0.0000000   0.0000000), wk =   0.3333333
        k(    8) = (  -0.8333333   0.0000000   0.0000000), wk =   0.0000000
        k(    9) = (  -0.1666667   0.0000000   0.0000000), wk =   0.3333333
        k(   10) = (  -0.5000000   0.0000000   0.0000000), wk =   0.0000000
        k(   11) = (  -0.3333333   0.0000000   0.0000000), wk =   0.3333333
        k(   12) = (  -0.6666666   0.0000000   0.0000000), wk =   0.0000000

     PseudoPot. # 1 for H  read from file:
     ./pseudo/H_ONCV_PBE.upf
     MD5 check sum: e96aa7e3e4a958db16958554ea960e2a
     Pseudo is Norm-conserving, Zval =  1.0
     Generated using ONCVPSP code by D. R. Hamann
     Using radial grid of 1166 points,  3 beta functions with: 
                l(1) =   0
                l(2) =   0
                l(3) =   1

     point group C_4v (4mm) 
     there are  5 classes
     the character table:

       E     2C4   C2    2s_v  2s_d 
A_1    1.00  1.00  1.00  1.00  1.00
A_2    1.00  1.00  1.00 -1.00 -1.00
B_1    1.00 -1.00  1.00  1.00 -1.00
B_2    1.00 -1.00  1.00 -1.00  1.00
E      2.00  0.00 -2.00  0.00  0.00

     the symmetry operations in each class and the name of the first element:

     E        1
          identity                                               
     2C4      3    4
           90 deg rotation - cart. axis [-1,0,0]                 
     C2       2
          180 deg rotation - cart. axis [1,0,0]                  
     2s_v     5    6
          inv. 180 deg rotation - cart. axis [0,0,1]             
     2s_d     7    8
          inv. 180 deg rotation - cart. axis [0,1,1]             


     Atomic displacements:
     There are    4 irreducible representations

     Representation     1      1 modes -  To be done
     Irreps are as follows:

                     mode #   1
                     (  -0.00000  -0.00000   ) 
                     (  -0.00000  -0.00000   ) 
                     (  -0.00000  -0.00000   ) 
                     (  -1.00000  -0.00000   ) 
                     (  -0.00000  -0.00000   ) 
                     (  -0.00000  -0.00000   ) 

     Representation     2      1 modes -  To be done
     Irreps are as follows:

                     mode #   2
                     (  -1.00000  -0.00000   ) 
                     (  -0.00000  -0.00000   ) 
                     (  -0.00000  -0.00000   ) 
                     (  -0.00000  -0.00000   ) 
                     (  -0.00000  -0.00000   ) 
                     (  -0.00000  -0.00000   ) 

     Representation     3      2 modes -  To be done
     Irreps are as follows:

           mode #   3                           mode #   4
           (  -0.00000  -0.00000   )            (  -0.00000  -0.00000   ) 
           (  -1.00000  -0.00000   )            (  -0.00000  -0.00000   ) 
           (  -0.00000  -0.00000   )            (  -1.00000  -0.00000   ) 
           (  -0.00000  -0.00000   )            (  -0.00000  -0.00000   ) 
           (  -0.00000  -0.00000   )            (  -0.00000  -0.00000   ) 
           (  -0.00000  -0.00000   )            (  -0.00000  -0.00000   ) 

     Representation     4      2 modes -  To be done
     Irreps are as follows:

           mode #   5                           mode #   6
           (  -0.00000  -0.00000   )            (  -0.00000  -0.00000   ) 
           (  -0.00000  -0.00000   )            (  -0.00000  -0.00000   ) 
           (  -0.00000  -0.00000   )            (  -0.00000  -0.00000   ) 
           (  -0.00000  -0.00000   )            (  -0.00000  -0.00000   ) 
           (  -1.00000  -0.00000   )            (  -0.00000  -0.00000   ) 
           (  -0.00000  -0.00000   )            (  -1.00000  -0.00000   ) 



     Alpha used in Ewald sum =   1.9000
     PHONON       :      9.12s CPU      9.50s WALL



     Representation #   1 mode #   1

     Self-consistent Calculation

      iter #   1 total cpu time :     9.7 secs   av.it.:   6.8
      thresh= 1.000E-02 alpha_mix =  0.700 |ddv_scf|^2 =  6.056E-07

      iter #   2 total cpu time :     9.8 secs   av.it.:   9.7
      thresh= 7.782E-05 alpha_mix =  0.700 |ddv_scf|^2 =  1.538E-08

      iter #   3 total cpu time :     9.9 secs   av.it.:   9.3
      thresh= 1.240E-05 alpha_mix =  0.700 |ddv_scf|^2 =  6.338E-10

      iter #   4 total cpu time :    10.0 secs   av.it.:   9.0
      thresh= 2.518E-06 alpha_mix =  0.700 |ddv_scf|^2 =  1.824E-10

      iter #   5 total cpu time :    10.1 secs   av.it.:   8.7
      thresh= 1.351E-06 alpha_mix =  0.700 |ddv_scf|^2 =  7.800E-13

     End of self-consistent calculation

     Convergence has been achieved 


     Representation #   2 mode #   2

     Self-consistent Calculation

      iter #   1 total cpu time :    10.3 secs   av.it.:   6.8
      thresh= 1.000E-02 alpha_mix =  0.700 |ddv_scf|^2 =  5.548E-07

      iter #   2 total cpu time :    10.4 secs   av.it.:   9.7
      thresh= 7.449E-05 alpha_mix =  0.700 |ddv_scf|^2 =  1.505E-08

      iter #   3 total cpu time :    10.5 secs   av.it.:   9.3
      thresh= 1.227E-05 alpha_mix =  0.700 |ddv_scf|^2 =  4.069E-10

      iter #   4 total cpu time :    10.7 secs   av.it.:   9.2
      thresh= 2.017E-06 alpha_mix =  0.700 |ddv_scf|^2 =  6.602E-11

      iter #   5 total cpu time :    10.8 secs   av.it.:   8.7
      thresh= 8.125E-07 alpha_mix =  0.700 |ddv_scf|^2 =  4.805E-13

     End of self-consistent calculation

     Convergence has been achieved 


     Representation #   3 modes #   3   4

     Self-consistent Calculation

      iter #   1 total cpu time :    11.0 secs   av.it.:   4.0
      thresh= 1.000E-02 alpha_mix =  0.700 |ddv_scf|^2 =  1.097E-08

      iter #   2 total cpu time :    11.2 secs   av.it.:   6.3
      thresh= 1.047E-05 alpha_mix =  0.700 |ddv_scf|^2 =  5.770E-10

      iter #   3 total cpu time :    11.4 secs   av.it.:   6.3
      thresh= 2.402E-06 alpha_mix =  0.700 |ddv_scf|^2 =  9.173E-12

      iter #   4 total cpu time :    11.6 secs   av.it.:   6.0
      thresh= 3.029E-07 alpha_mix =  0.700 |ddv_scf|^2 =  2.939E-14

     End of self-consistent calculation

     Convergence has been achieved 


     Representation #   4 modes #   5   6

     Self-consistent Calculation

      iter #   1 total cpu time :    11.8 secs   av.it.:   4.0
      thresh= 1.000E-02 alpha_mix =  0.700 |ddv_scf|^2 =  9.534E-09

      iter #   2 total cpu time :    12.0 secs   av.it.:   6.5
      thresh= 9.764E-06 alpha_mix =  0.700 |ddv_scf|^2 =  5.627E-10

      iter #   3 total cpu time :    12.2 secs   av.it.:   6.3
      thresh= 2.372E-06 alpha_mix =  0.700 |ddv_scf|^2 =  1.378E-11

      iter #   4 total cpu time :    12.4 secs   av.it.:   6.0
      thresh= 3.712E-07 alpha_mix =  0.700 |ddv_scf|^2 =  3.365E-14

     End of self-consistent calculation

     Convergence has been achieved 

     Number of q in the star =    1
     List of q in the star:
[...]

    -9.7521   0.8369   3.3067   4.7242   4.7242   6.1187   9.0380  10.1667

     occupation numbers 
     1.0000   0.0000   0.0000   0.0000   0.0000   0.0000   0.0000   0.0000

          k = 0.8333 0.0000 0.0000 (  2183 PWs)   bands (ev):

   -10.5818   0.4587   3.0783   3.0783   4.4509   5.6563   8.3715   8.9634

     occupation numbers 
     0.0000   0.0000   0.0000   0.0000   0.0000   0.0000   0.0000   0.0000

          k =-0.5000 0.0000 0.0000 (  2218 PWs)   bands (ev):

    -9.2231  -0.1223   4.8178   6.1243   7.0046   7.0046   8.0670   8.0670

     occupation numbers 
     1.0000   0.0000   0.0000   0.0000   0.0000   0.0000   0.0000   0.0000

          k = 0.0000 0.0000 0.0000 (  2231 PWs)   bands (ev):

   -10.9272   0.0148   2.5265   2.5265   3.8947   7.1665   8.4135   8.4135

     occupation numbers 
     0.0000   0.0000   0.0000   0.0000   0.0000   0.0000   0.0000   0.0000

     highest occupied, lowest unoccupied level (ev):    -9.2231   -0.1223

     Writing config to output data dir ./_ph0/hchain.save/

     hchain_dvscf                                                               

     bravais-lattice index     =            8
     lattice parameter (alat)  =       5.1779  a.u.
     unit-cell volume          =     517.7850 (a.u.)^3
     number of atoms/cell      =            2
     number of atomic types    =            1
     kinetic-energy cut-off    =      40.0000  Ry
     charge density cut-off    =     160.0000  Ry
     convergence threshold     =      1.0E-12
     beta                      =       0.7000
     number of iterations used =            4
     Exchange-correlation= PBE
                           (   1   4   3   4   0   0   0)


     celldm(1)=    5.17785  celldm(2)=    1.93130  celldm(3)=    1.93130
     celldm(4)=    0.00000  celldm(5)=    0.00000  celldm(6)=    0.00000

     crystal axes: (cart. coord. in units of alat)
               a(1) = (  1.0000  0.0000  0.0000 )  
               a(2) = (  0.0000  1.9313  0.0000 )  
               a(3) = (  0.0000  0.0000  1.9313 )  

     reciprocal axes: (cart. coord. in units 2 pi/alat)
               b(1) = (  1.0000  0.0000  0.0000 )  
               b(2) = (  0.0000  0.5178  0.0000 )  
               b(3) = (  0.0000  0.0000  0.5178 )  


     Atoms inside the unit cell: 

     Cartesian axes

     site n.  atom      mass           positions (alat units)
        1     H    1.0079   tau(    1) = (    0.00000    0.00000    0.00000  )
        2     H    1.0079   tau(    2) = (    0.27007    0.00000    0.00000  )

     Computing dynamical matrix for 
                    q = (   0.5000000   0.0000000   0.0000000 )

      9 Sym.Ops. (with q -> -q+G )

                                    s                        frac. trans.

      isym =  1     identity                                     

 cryst.   s( 1) = (     1          0          0      )
                  (     0          1          0      )
                  (     0          0          1      )

 cart.    s( 1) = (  1.0000000  0.0000000  0.0000000 )
                  (  0.0000000  1.0000000  0.0000000 )
                  (  0.0000000  0.0000000  1.0000000 )


      isym =  2     180 deg rotation - cart. axis [1,0,0]        

 cryst.   s( 2) = (     1          0          0      )
                  (     0         -1          0      )
                  (     0          0         -1      )

 cart.    s( 2) = (  1.0000000  0.0000000  0.0000000 )
                  (  0.0000000 -1.0000000  0.0000000 )
                  (  0.0000000  0.0000000 -1.0000000 )


      isym =  3      90 deg rotation - cart. axis [-1,0,0]       

 cryst.   s( 3) = (     1          0          0      )
                  (     0          0         -1      )
                  (     0          1          0      )

 cart.    s( 3) = (  1.0000000  0.0000000  0.0000000 )
                  (  0.0000000  0.0000000  1.0000000 )
                  (  0.0000000 -1.0000000  0.0000000 )


      isym =  4      90 deg rotation - cart. axis [1,0,0]        

 cryst.   s( 4) = (     1          0          0      )
                  (     0          0          1      )
                  (     0         -1          0      )

 cart.    s( 4) = (  1.0000000  0.0000000  0.0000000 )
                  (  0.0000000  0.0000000 -1.0000000 )
                  (  0.0000000  1.0000000  0.0000000 )


      isym =  5     inv. 180 deg rotation - cart. axis [0,0,1]   

 cryst.   s( 5) = (     1          0          0      )
                  (     0          1          0      )
                  (     0          0         -1      )

 cart.    s( 5) = (  1.0000000  0.0000000  0.0000000 )
                  (  0.0000000  1.0000000  0.0000000 )
                  (  0.0000000  0.0000000 -1.0000000 )


      isym =  6     inv. 180 deg rotation - cart. axis [0,1,0]   

 cryst.   s( 6) = (     1          0          0      )
                  (     0         -1          0      )
                  (     0          0          1      )

 cart.    s( 6) = (  1.0000000  0.0000000  0.0000000 )
                  (  0.0000000 -1.0000000  0.0000000 )
                  (  0.0000000  0.0000000  1.0000000 )


      isym =  7     inv. 180 deg rotation - cart. axis [0,1,1]   

 cryst.   s( 7) = (     1          0          0      )
                  (     0          0         -1      )
                  (     0         -1          0      )

 cart.    s( 7) = (  1.0000000  0.0000000  0.0000000 )
                  (  0.0000000  0.0000000 -1.0000000 )
                  (  0.0000000 -1.0000000  0.0000000 )


      isym =  8     inv. 180 deg rotation - cart. axis [0,1,-1]  

 cryst.   s( 8) = (     1          0          0      )
                  (     0          0          1      )
                  (     0          1          0      )

 cart.    s( 8) = (  1.0000000  0.0000000  0.0000000 )
                  (  0.0000000  0.0000000  1.0000000 )
                  (  0.0000000  1.0000000  0.0000000 )


     This transformation sends q -> -q+G

      isym =  9     identity                                     

 cryst.   s( 9) = (     1          0          0      )
                  (     0          1          0      )
                  (     0          0          1      )

 cart.    s( 9) = (  1.0000000  0.0000000  0.0000000 )
                  (  0.0000000  1.0000000  0.0000000 )
                  (  0.0000000  0.0000000  1.0000000 )


     G cutoff =  108.6574  (  17717 G-vectors)     FFT grid: ( 24, 45, 45)
     number of k points=     8
                       cart. coord. in units 2pi/alat
        k(    1) = (   0.0000000   0.0000000   0.0000000), wk =   0.3333333
        k(    2) = (   0.5000000   0.0000000   0.0000000), wk =   0.0000000
        k(    3) = (   0.1666667   0.0000000   0.0000000), wk =   0.6666667
        k(    4) = (   0.6666667   0.0000000   0.0000000), wk =   0.0000000
        k(    5) = (   0.3333333   0.0000000   0.0000000), wk =   0.6666667
        k(    6) = (   0.8333333   0.0000000   0.0000000), wk =   0.0000000
        k(    7) = (  -0.5000000   0.0000000   0.0000000), wk =   0.3333333
        k(    8) = (   0.0000000   0.0000000   0.0000000), wk =   0.0000000

                       cryst. coord.
        k(    1) = (   0.0000000   0.0000000   0.0000000), wk =   0.3333333
        k(    2) = (   0.5000000   0.0000000   0.0000000), wk =   0.0000000
        k(    3) = (   0.1666667   0.0000000   0.0000000), wk =   0.6666667
        k(    4) = (   0.6666667   0.0000000   0.0000000), wk =   0.0000000
        k(    5) = (   0.3333333   0.0000000   0.0000000), wk =   0.6666667
        k(    6) = (   0.8333333   0.0000000   0.0000000), wk =   0.0000000
        k(    7) = (  -0.5000000   0.0000000   0.0000000), wk =   0.3333333
        k(    8) = (   0.0000000   0.0000000   0.0000000), wk =   0.0000000

     PseudoPot. # 1 for H  read from file:
     ./pseudo/H_ONCV_PBE.upf
     MD5 check sum: e96aa7e3e4a958db16958554ea960e2a
     Pseudo is Norm-conserving, Zval =  1.0
     Generated using ONCVPSP code by D. R. Hamann
     Using radial grid of 1166 points,  3 beta functions with: 
                l(1) =   0
                l(2) =   0
                l(3) =   1

     point group C_4v (4mm) 
     there are  5 classes
     the character table:

       E     2C4   C2    2s_v  2s_d 
A_1    1.00  1.00  1.00  1.00  1.00
A_2    1.00  1.00  1.00 -1.00 -1.00
B_1    1.00 -1.00  1.00  1.00 -1.00
B_2    1.00 -1.00  1.00 -1.00  1.00
E      2.00  0.00 -2.00  0.00  0.00

     the symmetry operations in each class and the name of the first element:

     E        1
          identity                                               
     2C4      3    4
           90 deg rotation - cart. axis [-1,0,0]                 
     C2       2
          180 deg rotation - cart. axis [1,0,0]                  
     2s_v     5    6
          inv. 180 deg rotation - cart. axis [0,0,1]             
     2s_d     7    8
          inv. 180 deg rotation - cart. axis [0,1,1]             


     Atomic displacements:
     There are    4 irreducible representations

     Representation     1      1 modes -  To be done
     Irreps are as follows:

                     mode #   1
                     (  -0.00000  -0.00000   ) 
                     (  -0.00000  -0.00000   ) 
                     (  -0.00000  -0.00000   ) 
                     (  -1.00000  -0.00000   ) 
                     (  -0.00000  -0.00000   ) 
                     (  -0.00000  -0.00000   ) 

     Representation     2      1 modes -  To be done
     Irreps are as follows:

                     mode #   2
                     (  -1.00000  -0.00000   ) 
                     (  -0.00000  -0.00000   ) 
                     (  -0.00000  -0.00000   ) 
                     (  -0.00000  -0.00000   ) 
                     (  -0.00000  -0.00000   ) 
                     (  -0.00000  -0.00000   ) 

     Representation     3      2 modes -  To be done
     Irreps are as follows:

           mode #   3                           mode #   4
           (  -0.00000  -0.00000   )            (  -0.00000  -0.00000   ) 
           (  -1.00000  -0.00000   )            (  -0.00000  -0.00000   ) 
           (  -0.00000  -0.00000   )            (  -1.00000  -0.00000   ) 
           (  -0.00000  -0.00000   )            (  -0.00000  -0.00000   ) 
           (  -0.00000  -0.00000   )            (  -0.00000  -0.00000   ) 
           (  -0.00000  -0.00000   )            (  -0.00000  -0.00000   ) 

     Representation     4      2 modes -  To be done
     Irreps are as follows:

           mode #   5                           mode #   6
           (  -0.00000  -0.00000   )            (  -0.00000  -0.00000   ) 
           (  -0.00000  -0.00000   )            (  -0.00000  -0.00000   ) 
           (  -0.00000  -0.00000   )            (  -0.00000  -0.00000   ) 
           (  -0.00000  -0.00000   )            (  -0.00000  -0.00000   ) 
           (  -1.00000  -0.00000   )            (  -0.00000  -0.00000   ) 
           (  -0.00000  -0.00000   )            (  -1.00000  -0.00000   ) 



     Alpha used in Ewald sum =   1.9000
     PHONON       :     13.45s CPU     14.00s WALL



     Representation #   1 mode #   1

     Self-consistent Calculation

      iter #   1 total cpu time :    14.1 secs   av.it.:   6.8
      thresh= 1.000E-02 alpha_mix =  0.700 |ddv_scf|^2 =  6.375E-07

      iter #   2 total cpu time :    14.2 secs   av.it.:   9.5
      thresh= 7.984E-05 alpha_mix =  0.700 |ddv_scf|^2 =  9.739E-09

      iter #   3 total cpu time :    14.3 secs   av.it.:   9.5
      thresh= 9.868E-06 alpha_mix =  0.700 |ddv_scf|^2 =  5.956E-10

      iter #   4 total cpu time :    14.4 secs   av.it.:   8.8
      thresh= 2.441E-06 alpha_mix =  0.700 |ddv_scf|^2 =  1.662E-10

      iter #   5 total cpu time :    14.5 secs   av.it.:   7.8
      thresh= 1.289E-06 alpha_mix =  0.700 |ddv_scf|^2 =  1.286E-12

      iter #   6 total cpu time :    14.5 secs   av.it.:   7.0
      thresh= 1.134E-07 alpha_mix =  0.700 |ddv_scf|^2 =  1.284E-15

     End of self-consistent calculation

     Convergence has been achieved 


     Representation #   2 mode #   2

     Self-consistent Calculation

      iter #   1 total cpu time :    14.7 secs   av.it.:   6.8
      thresh= 1.000E-02 alpha_mix =  0.700 |ddv_scf|^2 =  5.569E-07

      iter #   2 total cpu time :    14.8 secs   av.it.:   9.5
      thresh= 7.462E-05 alpha_mix =  0.700 |ddv_scf|^2 =  7.246E-09

      iter #   3 total cpu time :    14.8 secs   av.it.:   9.5
      thresh= 8.512E-06 alpha_mix =  0.700 |ddv_scf|^2 =  4.674E-10

      iter #   4 total cpu time :    14.9 secs   av.it.:   8.5
      thresh= 2.162E-06 alpha_mix =  0.700 |ddv_scf|^2 =  4.969E-11

      iter #   5 total cpu time :    15.0 secs   av.it.:   8.2
      thresh= 7.049E-07 alpha_mix =  0.700 |ddv_scf|^2 =  4.377E-13

     End of self-consistent calculation

     Convergence has been achieved 


     Representation #   3 modes #   3   4

     Self-consistent Calculation

      iter #   1 total cpu time :    15.2 secs   av.it.:   4.0
      thresh= 1.000E-02 alpha_mix =  0.700 |ddv_scf|^2 =  9.240E-09

      iter #   2 total cpu time :    15.3 secs   av.it.:   6.2
      thresh= 9.612E-06 alpha_mix =  0.700 |ddv_scf|^2 =  5.716E-10

      iter #   3 total cpu time :    15.5 secs   av.it.:   6.8
      thresh= 2.391E-06 alpha_mix =  0.700 |ddv_scf|^2 =  4.994E-12

      iter #   4 total cpu time :    15.6 secs   av.it.:   6.0
      thresh= 2.235E-07 alpha_mix =  0.700 |ddv_scf|^2 =  1.999E-14

     End of self-consistent calculation

     Convergence has been achieved 


     Representation #   4 modes #   5   6

     Self-consistent Calculation

      iter #   1 total cpu time :    15.8 secs   av.it.:   4.0
      thresh= 1.000E-02 alpha_mix =  0.700 |ddv_scf|^2 =  8.010E-09

      iter #   2 total cpu time :    16.0 secs   av.it.:   6.5
      thresh= 8.950E-06 alpha_mix =  0.700 |ddv_scf|^2 =  5.847E-10

      iter #   3 total cpu time :    16.1 secs   av.it.:   6.8
      thresh= 2.418E-06 alpha_mix =  0.700 |ddv_scf|^2 =  9.348E-12

      iter #   4 total cpu time :    16.2 secs   av.it.:   6.0
      thresh= 3.057E-07 alpha_mix =  0.700 |ddv_scf|^2 =  4.806E-14

     End of self-consistent calculation

     Convergence has been achieved 

     Number of q in the star =    1
     List of q in the star:
          1   0.500000000   0.000000000   0.000000000

     Diagonalizing the dynamical matrix

     q = (    0.500000000   0.000000000   0.000000000 ) 

 **************************************************************************
     freq (    1) =     -18.345245 [THz] =    -611.931504 [cm-1]
     freq (    2) =     -18.345245 [THz] =    -611.931504 [cm-1]
     freq (    3) =      -3.888033 [THz] =    -129.690821 [cm-1]
     freq (    4) =      -3.888033 [THz] =    -129.690821 [cm-1]
     freq (    5) =      13.217772 [THz] =     440.897403 [cm-1]
     freq (    6) =     134.066217 [THz] =    4471.967625 [cm-1]
 **************************************************************************

     Mode symmetry, C_4v (4mm)  point group:

     freq (   1-   2) =       -611.9  [cm-1]   --> E    G_5 D_5       
     freq (   3-   4) =       -129.7  [cm-1]   --> E    G_5 D_5       
     freq (   5-   5) =        440.9  [cm-1]   --> A_1  G_1 D_1       
     freq (   6-   6) =       4472.0  [cm-1]   --> A_1  G_1 D_1       

     PHONON       :     15.59s CPU     16.25s WALL

     INITIALIZATION: 
     phq_setup    :      0.15s CPU      0.17s WALL (       4 calls)
     phq_init     :      0.55s CPU      0.56s WALL (       4 calls)

     phq_init     :      0.55s CPU      0.56s WALL (       4 calls)
     init_vloc    :      0.03s CPU      0.03s WALL (       4 calls)
     init_us_1    :      0.01s CPU      0.01s WALL (       4 calls)
     init_us_2    :      0.19s CPU      0.22s WALL (     592 calls)

     DYNAMICAL MATRIX:
     dynmat0      :      0.09s CPU      0.09s WALL (       4 calls)
     phqscf       :      9.42s CPU     10.01s WALL (       4 calls)
     dynmatrix    :      0.00s CPU      0.00s WALL (       4 calls)

     phqscf       :      9.42s CPU     10.01s WALL (       4 calls)
     solve_linter :      9.26s CPU      9.80s WALL (      16 calls)
     drhodv       :      0.15s CPU      0.19s WALL (      16 calls)

     dynmat0      :      0.09s CPU      0.09s WALL (       4 calls)
     dynmat_us    :      0.07s CPU      0.07s WALL (       4 calls)
     d2ionq       :      0.02s CPU      0.02s WALL (       4 calls)

     dynmat_us    :      0.07s CPU      0.07s WALL (       4 calls)

     phqscf       :      9.42s CPU     10.01s WALL (       4 calls)
     solve_linter :      9.26s CPU      9.80s WALL (      16 calls)

     solve_linter :      9.26s CPU      9.80s WALL (      16 calls)
     dvqpsi_us    :      1.20s CPU      1.24s WALL (     120 calls)
                                        0.00s GPU  (     120 calls)
     sth_kernel   :      5.57s CPU      5.85s WALL (      72 calls)
     h_prec       :      0.00s CPU      0.01s WALL (     360 calls)
     apply_dpot_b :      0.43s CPU      0.49s WALL (     400 calls)
     ortho        :      0.01s CPU      0.01s WALL (     520 calls)
     cgsolve      :      4.44s CPU      4.60s WALL (     520 calls)
     incdrhoscf   :      0.43s CPU      0.46s WALL (     520 calls)
                                        0.00s GPU  (     520 calls)
     dv_of_drho   :      1.26s CPU      1.34s WALL (     104 calls)
     mix_pot      :      0.12s CPU      0.18s WALL (      72 calls)
     psymdvscf    :      0.99s CPU      1.03s WALL (      72 calls)

     dvqpsi_us    :      1.20s CPU      1.24s WALL (     120 calls)
                                        0.00s GPU  (     120 calls)
     dvqpsi_us_on :      0.02s CPU      0.02s WALL (     120 calls)

     cgsolve      :      4.44s CPU      4.60s WALL (     520 calls)
     ch_psi       :      4.36s CPU      4.52s WALL (    3530 calls)

     ch_psi       :      4.36s CPU      4.52s WALL (    3530 calls)
     h_psi        :      8.89s CPU      9.08s WALL (    4283 calls)
     last         :      0.13s CPU      0.14s WALL (    3530 calls)

     h_psi        :      8.89s CPU      9.08s WALL (    4283 calls)
     add_vuspsi   :      0.17s CPU      0.17s WALL (    4283 calls)

     incdrhoscf   :      0.43s CPU      0.46s WALL (     520 calls)
                                        0.00s GPU  (     520 calls)


      General routines
     calbec       :      0.18s CPU      0.19s WALL (    8493 calls)
     fft          :      0.78s CPU      0.81s WALL (    1200 calls)
     ffts         :      0.11s CPU      0.12s WALL (     216 calls)
     fftw         :      7.97s CPU      8.19s WALL (   18694 calls)
     davcio       :      0.21s CPU      0.26s WALL (    2866 calls)
     write_rec    :      0.04s CPU      0.07s WALL (      88 calls)

      Additional routines
     ch_psi       :      4.36s CPU      4.52s WALL (    3530 calls)
     last         :      0.13s CPU      0.14s WALL (    3530 calls)
     Hesh         :      0.04s CPU      0.04s WALL (    3530 calls)
     ch_psi_all_k :      0.09s CPU      0.09s WALL (    3530 calls)
                                        0.00s GPU  (    3530 calls)
     ch_psi_calbe :      0.03s CPU      0.03s WALL (    3530 calls)
                                        0.00s GPU  (    3530 calls)
     h_psi_bgrp   :      8.90s CPU      9.08s WALL (    4283 calls)
     h_psi        :      8.89s CPU      9.08s WALL (    4283 calls)
     h_psi:pot    :      8.81s CPU      8.99s WALL (    4283 calls)
     h_psi:calbec :      0.12s CPU      0.12s WALL (    4283 calls)
     s_psi_bgrp   :      0.01s CPU      0.01s WALL (    7580 calls)


     PHONON       :     15.59s CPU     16.25s WALL


   This run was terminated on:  17:57:20  21Dec2022            

=------------------------------------------------------------------------------=
   JOB DONE.
=------------------------------------------------------------------------------=
