
     Program PHONON v.7.1 starts on 20Dec2022 at 23:23:56 

     This program is part of the open-source Quantum ESPRESSO suite
     for quantum simulation of materials; please cite
         "P. Giannozzi et al., J. Phys.:Condens. Matter 21 395502 (2009);
         "P. Giannozzi et al., J. Phys.:Condens. Matter 29 465901 (2017);
         "P. Giannozzi et al., J. Chem. Phys. 152 154105 (2020);
          URL http://www.quantum-espresso.org", 
     in publications or presentations arising from this work. More details at
     http://www.quantum-espresso.org/quote

     Parallel version (MPI), running on     1 processors

     MPI processes distributed on     1 nodes
     867 MiB available memory on the printing compute node when the environment starts

     Waiting for input...
     Reading input from standard input


     Dynamical matrices for q-points given in input
     (   4q-points):
       N         xq(1)         xq(2)         xq(3) 
       1   0.000000000   0.000000000   0.000000000
       2  -0.166666700   0.000000000   0.000000000
       3  -0.333333300   0.000000000   0.000000000
       4   0.500000000   0.000000000   0.000000000

     Reading xml data from directory:

     ./hchain.save/

     Subspace diagonalization in iterative solution of the eigenvalue problem:
     a serial algorithm will be used


     IMPORTANT: XC functional enforced from input :
     Exchange-correlation= PBE
                           (   1   4   3   4   0   0   0)
     Any further DFT definition will be discarded
     Please, verify this is what you really want


     G-vector sticks info
     --------------------
     sticks:   dense  smooth     PW     G-vecs:    dense   smooth      PW
     Sum        1313    1313    373                49989    49989    7587

     Using Slab Decomposition

     Reading collected, re-writing distributed wavefunctions in ./

     Saving dvscf to file. Distribute only q points, not irreducible represetations.

     Calculation of q =    0.0000000   0.0000000   0.0000000

     G-vector sticks info
     --------------------
     sticks:   dense  smooth     PW     G-vecs:    dense   smooth      PW
     Sum        1313    1313    373                49989    49989    7587

     Using Slab Decomposition


     Title: 
     hchain_dvscf                                                               


     bravais-lattice index     =            8
     lattice parameter (alat)  =       5.1779  a.u.
     unit-cell volume          =     517.7850 (a.u.)^3
     number of atoms/cell      =            2
     number of atomic types    =            1
     number of electrons       =         2.00
     number of Kohn-Sham states=            8
     kinetic-energy cutoff     =      80.0000  Ry
     charge density cutoff     =     320.0000  Ry
     Exchange-correlation= PBE
                           (   1   4   3   4   0   0   0)

     celldm(1)=   5.177850  celldm(2)=   1.931304  celldm(3)=   1.931304
     celldm(4)=   0.000000  celldm(5)=   0.000000  celldm(6)=   0.000000

     crystal axes: (cart. coord. in units of alat)
               a(1) = (   1.000000   0.000000   0.000000 )  
               a(2) = (   0.000000   1.931304   0.000000 )  
               a(3) = (   0.000000   0.000000   1.931304 )  

     reciprocal axes: (cart. coord. in units 2 pi/alat)
               b(1) = (  1.000000  0.000000  0.000000 )  
               b(2) = (  0.000000  0.517785  0.000000 )  
               b(3) = (  0.000000  0.000000  0.517785 )  


     PseudoPot. # 1 for H  read from file:
     ./pseudo/H_ONCV_PBE.upf
     MD5 check sum: e96aa7e3e4a958db16958554ea960e2a
     Pseudo is Norm-conserving, Zval =  1.0
     Generated using ONCVPSP code by D. R. Hamann
     Using radial grid of 1166 points,  3 beta functions with: 
                l(1) =   0
                l(2) =   0
                l(3) =   1

     atomic species   valence    mass     pseudopotential
        H              1.00     1.00794     H ( 1.00)

      8 Sym. Ops. (no inversion) found


                                    s                        frac. trans.

      isym =  1     identity                                     

 cryst.   s( 1) = (     1          0          0      )
                  (     0          1          0      )
                  (     0          0          1      )

 cart.    s( 1) = (  1.0000000  0.0000000  0.0000000 )
                  (  0.0000000  1.0000000  0.0000000 )
                  (  0.0000000  0.0000000  1.0000000 )


      isym =  2     180 deg rotation - cart. axis [1,0,0]        

 cryst.   s( 2) = (     1          0          0      )
                  (     0         -1          0      )
                  (     0          0         -1      )

 cart.    s( 2) = (  1.0000000  0.0000000  0.0000000 )
                  (  0.0000000 -1.0000000  0.0000000 )
                  (  0.0000000  0.0000000 -1.0000000 )


      isym =  3      90 deg rotation - cart. axis [-1,0,0]       

 cryst.   s( 3) = (     1          0          0      )
                  (     0          0         -1      )
                  (     0          1          0      )

 cart.    s( 3) = (  1.0000000  0.0000000  0.0000000 )
                  (  0.0000000  0.0000000  1.0000000 )
                  (  0.0000000 -1.0000000  0.0000000 )


      isym =  4      90 deg rotation - cart. axis [1,0,0]        

 cryst.   s( 4) = (     1          0          0      )
                  (     0          0          1      )
                  (     0         -1          0      )

 cart.    s( 4) = (  1.0000000  0.0000000  0.0000000 )
                  (  0.0000000  0.0000000 -1.0000000 )
                  (  0.0000000  1.0000000  0.0000000 )


      isym =  5     inv. 180 deg rotation - cart. axis [0,0,1]   

 cryst.   s( 5) = (     1          0          0      )
                  (     0          1          0      )
                  (     0          0         -1      )

 cart.    s( 5) = (  1.0000000  0.0000000  0.0000000 )
                  (  0.0000000  1.0000000  0.0000000 )
                  (  0.0000000  0.0000000 -1.0000000 )


      isym =  6     inv. 180 deg rotation - cart. axis [0,1,0]   

 cryst.   s( 6) = (     1          0          0      )
                  (     0         -1          0      )
                  (     0          0          1      )

 cart.    s( 6) = (  1.0000000  0.0000000  0.0000000 )
                  (  0.0000000 -1.0000000  0.0000000 )
                  (  0.0000000  0.0000000  1.0000000 )


      isym =  7     inv. 180 deg rotation - cart. axis [0,1,1]   

 cryst.   s( 7) = (     1          0          0      )
                  (     0          0         -1      )
                  (     0         -1          0      )

 cart.    s( 7) = (  1.0000000  0.0000000  0.0000000 )
                  (  0.0000000  0.0000000 -1.0000000 )
                  (  0.0000000 -1.0000000  0.0000000 )


      isym =  8     inv. 180 deg rotation - cart. axis [0,1,-1]  

 cryst.   s( 8) = (     1          0          0      )
                  (     0          0          1      )
                  (     0          1          0      )

 cart.    s( 8) = (  1.0000000  0.0000000  0.0000000 )
                  (  0.0000000  0.0000000  1.0000000 )
                  (  0.0000000  1.0000000  0.0000000 )


     point group C_4v (4mm) 
     there are  5 classes
     the character table:

       E     2C4   C2    2s_v  2s_d 
A_1    1.00  1.00  1.00  1.00  1.00
A_2    1.00  1.00  1.00 -1.00 -1.00
B_1    1.00 -1.00  1.00  1.00 -1.00
B_2    1.00 -1.00  1.00 -1.00  1.00
E      2.00  0.00 -2.00  0.00  0.00

     the symmetry operations in each class and the name of the first element:

     E        1
          identity                                               
     2C4      3    4
           90 deg rotation - cart. axis [-1,0,0]                 
     C2       2
          180 deg rotation - cart. axis [1,0,0]                  
     2s_v     5    6
          inv. 180 deg rotation - cart. axis [0,0,1]             
     2s_d     7    8
          inv. 180 deg rotation - cart. axis [0,1,1]             

   Cartesian axes

     site n.     atom                  positions (alat units)
         1           H   tau(   1) = (   0.0000000   0.0000000   0.0000000  )
         2           H   tau(   2) = (   0.2700730   0.0000000   0.0000000  )

   Crystallographic axes

     site n.     atom                  positions (cryst. coord.)
         1           H   tau(   1) = (  0.0000000  0.0000000  0.0000000  )
         2           H   tau(   2) = (  0.2700730  0.0000000  0.0000000  )

     number of k points=     4
                       cart. coord. in units 2pi/alat
        k(    1) = (   0.0000000   0.0000000   0.0000000), wk =   0.3333333
        k(    2) = (   0.1666667   0.0000000   0.0000000), wk =   0.6666667
        k(    3) = (   0.3333333   0.0000000   0.0000000), wk =   0.6666667
        k(    4) = (  -0.5000000   0.0000000   0.0000000), wk =   0.3333333

                       cryst. coord.
        k(    1) = (   0.0000000   0.0000000   0.0000000), wk =   0.3333333
        k(    2) = (   0.1666667   0.0000000   0.0000000), wk =   0.6666667
        k(    3) = (   0.3333333   0.0000000   0.0000000), wk =   0.6666667
        k(    4) = (  -0.5000000   0.0000000   0.0000000), wk =   0.3333333

     Dense  grid:    49989 G-vectors     FFT dimensions: (  30,  60,  60)

     Dynamical RAM for                 wfc:       0.76 MB

     Dynamical RAM for     wfc (w. buffer):       0.76 MB

     Dynamical RAM for           str. fact:       0.76 MB

     Dynamical RAM for           local pot:       0.02 MB

     Dynamical RAM for          nlocal pot:       0.95 MB

     Dynamical RAM for                qrad:       0.25 MB

     Dynamical RAM for          rho,v,vnew:       4.76 MB

     Dynamical RAM for           G-vectors:       3.24 MB

     Dynamical RAM for          h,s,v(r/c):       0.05 MB

     Dynamical RAM for          <psi|beta>:       0.00 MB

     Dynamical RAM for                 psi:       3.06 MB

     Dynamical RAM for                hpsi:       3.06 MB

     Dynamical RAM for      wfcinit/wfcrot:       1.53 MB

     Estimated static dynamical RAM per process >      16.40 MB

     Estimated max dynamical RAM per process >      22.56 MB

     The potential is recalculated from file :
     ./_ph0/hchain.save/charge-density

     Starting wfcs are    2 atomic +    6 random wfcs

     Band Structure Calculation
     Davidson diagonalization with overlap

     Computing kpt #:     1
     total cpu time spent up to now is        0.5 secs

     Computing kpt #:     2
     total cpu time spent up to now is        0.8 secs

     Computing kpt #:     3
     total cpu time spent up to now is        1.3 secs

     Computing kpt #:     4
     total cpu time spent up to now is        1.8 secs

     ethr =  5.00E-10,  avg # of iterations = 22.8

     total cpu time spent up to now is        1.8 secs

     End of band structure calculation

          k = 0.0000 0.0000 0.0000 (  6263 PWs)   bands (ev):

   -10.9360   0.0142   2.5304   2.5304   3.8964   7.1670   8.4171   8.4171

     occupation numbers 
     1.0000   0.0000   0.0000   0.0000   0.0000   0.0000   0.0000   0.0000

          k = 0.1667 0.0000 0.0000 (  6279 PWs)   bands (ev):

   -10.5933   0.4576   3.0821   3.0821   4.4526   5.6494   8.3714   8.9670

     occupation numbers 
     1.0000   0.0000   0.0000   0.0000   0.0000   0.0000   0.0000   0.0000

          k = 0.3333 0.0000 0.0000 (  6247 PWs)   bands (ev):

    -9.7653   0.8350   3.3066   4.7281   4.7281   6.1204   9.0377  10.1682

     occupation numbers 
     1.0000   0.0000   0.0000   0.0000   0.0000   0.0000   0.0000   0.0000

          k =-0.5000 0.0000 0.0000 (  6246 PWs)   bands (ev):

    -9.2371  -0.1217   4.8169   6.1250   7.0093   7.0093   8.0699   8.0699

     occupation numbers 
     1.0000   0.0000   0.0000   0.0000   0.0000   0.0000   0.0000   0.0000

     highest occupied, lowest unoccupied level (ev):    -9.2371   -0.1217

     Writing config to output data dir ./_ph0/hchain.save/

     hchain_dvscf                                                               

     bravais-lattice index     =            8
     lattice parameter (alat)  =       5.1779  a.u.
     unit-cell volume          =     517.7850 (a.u.)^3
     number of atoms/cell      =            2
     number of atomic types    =            1
     kinetic-energy cut-off    =      80.0000  Ry
     charge density cut-off    =     320.0000  Ry
     convergence threshold     =      1.0E-12
     beta                      =       0.7000
     number of iterations used =            4
     Exchange-correlation= PBE
                           (   1   4   3   4   0   0   0)


     celldm(1)=    5.17785  celldm(2)=    1.93130  celldm(3)=    1.93130
     celldm(4)=    0.00000  celldm(5)=    0.00000  celldm(6)=    0.00000

     crystal axes: (cart. coord. in units of alat)
               a(1) = (  1.0000  0.0000  0.0000 )  
               a(2) = (  0.0000  1.9313  0.0000 )  
               a(3) = (  0.0000  0.0000  1.9313 )  

     reciprocal axes: (cart. coord. in units 2 pi/alat)
               b(1) = (  1.0000  0.0000  0.0000 )  
               b(2) = (  0.0000  0.5178  0.0000 )  
               b(3) = (  0.0000  0.0000  0.5178 )  


     Atoms inside the unit cell: 

     Cartesian axes

     site n.  atom      mass           positions (alat units)
        1     H    1.0079   tau(    1) = (    0.00000    0.00000    0.00000  )
        2     H    1.0079   tau(    2) = (    0.27007    0.00000    0.00000  )

     Computing dynamical matrix for 
                    q = (   0.0000000   0.0000000   0.0000000 )

      9 Sym.Ops. (with q -> -q+G )

                                    s                        frac. trans.

      isym =  1     identity                                     

 cryst.   s( 1) = (     1          0          0      )
                  (     0          1          0      )
                  (     0          0          1      )

 cart.    s( 1) = (  1.0000000  0.0000000  0.0000000 )
                  (  0.0000000  1.0000000  0.0000000 )
                  (  0.0000000  0.0000000  1.0000000 )


      isym =  2     180 deg rotation - cart. axis [1,0,0]        

 cryst.   s( 2) = (     1          0          0      )
                  (     0         -1          0      )
                  (     0          0         -1      )

 cart.    s( 2) = (  1.0000000  0.0000000  0.0000000 )
                  (  0.0000000 -1.0000000  0.0000000 )
                  (  0.0000000  0.0000000 -1.0000000 )


      isym =  3      90 deg rotation - cart. axis [-1,0,0]       

 cryst.   s( 3) = (     1          0          0      )
                  (     0          0         -1      )
                  (     0          1          0      )

 cart.    s( 3) = (  1.0000000  0.0000000  0.0000000 )
                  (  0.0000000  0.0000000  1.0000000 )
                  (  0.0000000 -1.0000000  0.0000000 )


      isym =  4      90 deg rotation - cart. axis [1,0,0]        

 cryst.   s( 4) = (     1          0          0      )
                  (     0          0          1      )
                  (     0         -1          0      )

 cart.    s( 4) = (  1.0000000  0.0000000  0.0000000 )
                  (  0.0000000  0.0000000 -1.0000000 )
                  (  0.0000000  1.0000000  0.0000000 )


      isym =  5     inv. 180 deg rotation - cart. axis [0,0,1]   

 cryst.   s( 5) = (     1          0          0      )
                  (     0          1          0      )
                  (     0          0         -1      )

 cart.    s( 5) = (  1.0000000  0.0000000  0.0000000 )
                  (  0.0000000  1.0000000  0.0000000 )
                  (  0.0000000  0.0000000 -1.0000000 )


      isym =  6     inv. 180 deg rotation - cart. axis [0,1,0]   

 cryst.   s( 6) = (     1          0          0      )
                  (     0         -1          0      )
                  (     0          0          1      )

 cart.    s( 6) = (  1.0000000  0.0000000  0.0000000 )
                  (  0.0000000 -1.0000000  0.0000000 )
                  (  0.0000000  0.0000000  1.0000000 )


      isym =  7     inv. 180 deg rotation - cart. axis [0,1,1]   

 cryst.   s( 7) = (     1          0          0      )
                  (     0          0         -1      )
                  (     0         -1          0      )

 cart.    s( 7) = (  1.0000000  0.0000000  0.0000000 )
                  (  0.0000000  0.0000000 -1.0000000 )
                  (  0.0000000 -1.0000000  0.0000000 )


      isym =  8     inv. 180 deg rotation - cart. axis [0,1,-1]  

 cryst.   s( 8) = (     1          0          0      )
                  (     0          0          1      )
                  (     0          1          0      )

 cart.    s( 8) = (  1.0000000  0.0000000  0.0000000 )
                  (  0.0000000  0.0000000  1.0000000 )
                  (  0.0000000  1.0000000  0.0000000 )


     This transformation sends q -> -q+G

      isym =  9     identity                                     

 cryst.   s( 9) = (     1          0          0      )
                  (     0          1          0      )
                  (     0          0          1      )

 cart.    s( 9) = (  1.0000000  0.0000000  0.0000000 )
                  (  0.0000000  1.0000000  0.0000000 )
                  (  0.0000000  0.0000000  1.0000000 )


     G cutoff =  217.3147  (  49989 G-vectors)     FFT grid: ( 30, 60, 60)
     number of k points=     4
                       cart. coord. in units 2pi/alat
        k(    1) = (   0.0000000   0.0000000   0.0000000), wk =   0.3333333
        k(    2) = (   0.1666667   0.0000000   0.0000000), wk =   0.6666667
        k(    3) = (   0.3333333   0.0000000   0.0000000), wk =   0.6666667
        k(    4) = (  -0.5000000   0.0000000   0.0000000), wk =   0.3333333

                       cryst. coord.
        k(    1) = (   0.0000000   0.0000000   0.0000000), wk =   0.3333333
        k(    2) = (   0.1666667   0.0000000   0.0000000), wk =   0.6666667
        k(    3) = (   0.3333333   0.0000000   0.0000000), wk =   0.6666667
        k(    4) = (  -0.5000000   0.0000000   0.0000000), wk =   0.3333333

     PseudoPot. # 1 for H  read from file:
     ./pseudo/H_ONCV_PBE.upf
     MD5 check sum: e96aa7e3e4a958db16958554ea960e2a
     Pseudo is Norm-conserving, Zval =  1.0
     Generated using ONCVPSP code by D. R. Hamann
     Using radial grid of 1166 points,  3 beta functions with: 
                l(1) =   0
                l(2) =   0
                l(3) =   1

     point group C_4v (4mm) 
     there are  5 classes
     the character table:

       E     2C4   C2    2s_v  2s_d 
A_1    1.00  1.00  1.00  1.00  1.00
A_2    1.00  1.00  1.00 -1.00 -1.00
B_1    1.00 -1.00  1.00  1.00 -1.00
B_2    1.00 -1.00  1.00 -1.00  1.00
E      2.00  0.00 -2.00  0.00  0.00

     the symmetry operations in each class and the name of the first element:

     E        1
          identity                                               
     2C4      3    4
           90 deg rotation - cart. axis [-1,0,0]                 
     C2       2
          180 deg rotation - cart. axis [1,0,0]                  
     2s_v     5    6
          inv. 180 deg rotation - cart. axis [0,0,1]             
     2s_d     7    8
          inv. 180 deg rotation - cart. axis [0,1,1]             


     Atomic displacements:
     There are    4 irreducible representations

     Representation     1      1 modes -  To be done
     Irreps are as follows:

                     mode #   1
                     (  -0.00000  -0.00000   ) 
                     (  -0.00000  -0.00000   ) 
                     (  -0.00000  -0.00000   ) 
                     (  -1.00000  -0.00000   ) 
                     (  -0.00000  -0.00000   ) 
                     (  -0.00000  -0.00000   ) 

     Representation     2      1 modes -  To be done
     Irreps are as follows:

                     mode #   2
                     (  -1.00000  -0.00000   ) 
                     (  -0.00000  -0.00000   ) 
                     (  -0.00000  -0.00000   ) 
                     (  -0.00000  -0.00000   ) 
                     (  -0.00000  -0.00000   ) 
                     (  -0.00000  -0.00000   ) 

     Representation     3      2 modes -  To be done
     Irreps are as follows:

           mode #   3                           mode #   4
           (  -0.00000  -0.00000   )            (  -0.00000  -0.00000   ) 
           (  -1.00000  -0.00000   )            (  -0.00000  -0.00000   ) 
           (  -0.00000  -0.00000   )            (  -1.00000  -0.00000   ) 
           (  -0.00000  -0.00000   )            (  -0.00000  -0.00000   ) 
           (  -0.00000  -0.00000   )            (  -0.00000  -0.00000   ) 
           (  -0.00000  -0.00000   )            (  -0.00000  -0.00000   ) 

     Representation     4      2 modes -  To be done
     Irreps are as follows:

           mode #   5                           mode #   6
           (  -0.00000  -0.00000   )            (  -0.00000  -0.00000   ) 
           (  -0.00000  -0.00000   )            (  -0.00000  -0.00000   ) 
           (  -0.00000  -0.00000   )            (  -0.00000  -0.00000   ) 
           (  -0.00000  -0.00000   )            (  -0.00000  -0.00000   ) 
           (  -1.00000  -0.00000   )            (  -0.00000  -0.00000   ) 
           (  -0.00000  -0.00000   )            (  -1.00000  -0.00000   ) 


     PHONON       :      2.26s CPU      2.30s WALL

     Reading dVscf from file hchain-dvscf1_
     Reading dynamics matrix from file hchain.dyn1

     Diagonalizing the dynamical matrix

     q = (    0.000000000   0.000000000   0.000000000 ) 

 **************************************************************************
     freq (    1) =     -17.128680 [THz] =    -571.351264 [cm-1]
     freq (    2) =     -17.128680 [THz] =    -571.351264 [cm-1]
     freq (    3) =       2.632990 [THz] =      87.827104 [cm-1]
     freq (    4) =       3.234953 [THz] =     107.906407 [cm-1]
     freq (    5) =       3.234953 [THz] =     107.906407 [cm-1]
     freq (    6) =     132.373228 [THz] =    4415.495596 [cm-1]
 **************************************************************************
     electron-phonon interaction (to be used in YAMBO)  ...


     Calculation of q =   -0.1666667   0.0000000   0.0000000

     G-vector sticks info
     --------------------
     sticks:   dense  smooth     PW     G-vecs:    dense   smooth      PW
     Sum        1313    1313    395                49989    49989    8149

     Using Slab Decomposition


     Title: 
     hchain_dvscf                                                               


     bravais-lattice index     =            8
     lattice parameter (alat)  =       5.1779  a.u.
     unit-cell volume          =     517.7850 (a.u.)^3
     number of atoms/cell      =            2
     number of atomic types    =            1
     number of electrons       =         2.00
     number of Kohn-Sham states=            8
     kinetic-energy cutoff     =      80.0000  Ry
     charge density cutoff     =     320.0000  Ry
     Exchange-correlation= PBE
                           (   1   4   3   4   0   0   0)

     celldm(1)=   5.177850  celldm(2)=   1.931304  celldm(3)=   1.931304
     celldm(4)=   0.000000  celldm(5)=   0.000000  celldm(6)=   0.000000

     crystal axes: (cart. coord. in units of alat)
               a(1) = (   1.000000   0.000000   0.000000 )  
               a(2) = (   0.000000   1.931304   0.000000 )  
               a(3) = (   0.000000   0.000000   1.931304 )  

     reciprocal axes: (cart. coord. in units 2 pi/alat)
               b(1) = (  1.000000  0.000000  0.000000 )  
               b(2) = (  0.000000  0.517785  0.000000 )  
               b(3) = (  0.000000  0.000000  0.517785 )  


     PseudoPot. # 1 for H  read from file:
     ./pseudo/H_ONCV_PBE.upf
     MD5 check sum: e96aa7e3e4a958db16958554ea960e2a
     Pseudo is Norm-conserving, Zval =  1.0
     Generated using ONCVPSP code by D. R. Hamann
     Using radial grid of 1166 points,  3 beta functions with: 
                l(1) =   0
                l(2) =   0
                l(3) =   1

     atomic species   valence    mass     pseudopotential
        H              1.00     1.00794     H ( 1.00)

      8 Sym. Ops. (no inversion) found


                                    s                        frac. trans.

      isym =  1     identity                                     

 cryst.   s( 1) = (     1          0          0      )
                  (     0          1          0      )
                  (     0          0          1      )

 cart.    s( 1) = (  1.0000000  0.0000000  0.0000000 )
                  (  0.0000000  1.0000000  0.0000000 )
                  (  0.0000000  0.0000000  1.0000000 )


      isym =  2     180 deg rotation - cart. axis [1,0,0]        

 cryst.   s( 2) = (     1          0          0      )
                  (     0         -1          0      )
                  (     0          0         -1      )

 cart.    s( 2) = (  1.0000000  0.0000000  0.0000000 )
                  (  0.0000000 -1.0000000  0.0000000 )
                  (  0.0000000  0.0000000 -1.0000000 )


      isym =  3      90 deg rotation - cart. axis [-1,0,0]       

 cryst.   s( 3) = (     1          0          0      )
                  (     0          0         -1      )
                  (     0          1          0      )

 cart.    s( 3) = (  1.0000000  0.0000000  0.0000000 )
                  (  0.0000000  0.0000000  1.0000000 )
                  (  0.0000000 -1.0000000  0.0000000 )


      isym =  4      90 deg rotation - cart. axis [1,0,0]        

 cryst.   s( 4) = (     1          0          0      )
                  (     0          0          1      )
                  (     0         -1          0      )

 cart.    s( 4) = (  1.0000000  0.0000000  0.0000000 )
                  (  0.0000000  0.0000000 -1.0000000 )
                  (  0.0000000  1.0000000  0.0000000 )


      isym =  5     inv. 180 deg rotation - cart. axis [0,0,1]   

 cryst.   s( 5) = (     1          0          0      )
                  (     0          1          0      )
                  (     0          0         -1      )

 cart.    s( 5) = (  1.0000000  0.0000000  0.0000000 )
                  (  0.0000000  1.0000000  0.0000000 )
                  (  0.0000000  0.0000000 -1.0000000 )


      isym =  6     inv. 180 deg rotation - cart. axis [0,1,0]   

 cryst.   s( 6) = (     1          0          0      )
                  (     0         -1          0      )
                  (     0          0          1      )

 cart.    s( 6) = (  1.0000000  0.0000000  0.0000000 )
                  (  0.0000000 -1.0000000  0.0000000 )
                  (  0.0000000  0.0000000  1.0000000 )


      isym =  7     inv. 180 deg rotation - cart. axis [0,1,1]   

 cryst.   s( 7) = (     1          0          0      )
                  (     0          0         -1      )
                  (     0         -1          0      )

 cart.    s( 7) = (  1.0000000  0.0000000  0.0000000 )
                  (  0.0000000  0.0000000 -1.0000000 )
                  (  0.0000000 -1.0000000  0.0000000 )


      isym =  8     inv. 180 deg rotation - cart. axis [0,1,-1]  

 cryst.   s( 8) = (     1          0          0      )
                  (     0          0          1      )
                  (     0          1          0      )

 cart.    s( 8) = (  1.0000000  0.0000000  0.0000000 )
                  (  0.0000000  0.0000000  1.0000000 )
                  (  0.0000000  1.0000000  0.0000000 )


     point group C_4v (4mm) 
     there are  5 classes
     the character table:

       E     2C4   C2    2s_v  2s_d 
A_1    1.00  1.00  1.00  1.00  1.00
A_2    1.00  1.00  1.00 -1.00 -1.00
B_1    1.00 -1.00  1.00  1.00 -1.00
B_2    1.00 -1.00  1.00 -1.00  1.00
E      2.00  0.00 -2.00  0.00  0.00

     the symmetry operations in each class and the name of the first element:

     E        1
          identity                                               
     2C4      3    4
           90 deg rotation - cart. axis [-1,0,0]                 
     C2       2
          180 deg rotation - cart. axis [1,0,0]                  
     2s_v     5    6
          inv. 180 deg rotation - cart. axis [0,0,1]             
     2s_d     7    8
          inv. 180 deg rotation - cart. axis [0,1,1]             

   Cartesian axes

     site n.     atom                  positions (alat units)
         1           H   tau(   1) = (   0.0000000   0.0000000   0.0000000  )
         2           H   tau(   2) = (   0.2700730   0.0000000   0.0000000  )

   Crystallographic axes

     site n.     atom                  positions (cryst. coord.)
         1           H   tau(   1) = (  0.0000000  0.0000000  0.0000000  )
         2           H   tau(   2) = (  0.2700730  0.0000000  0.0000000  )

     number of k points=    12
                       cart. coord. in units 2pi/alat
        k(    1) = (   0.0000000   0.0000000   0.0000000), wk =   0.3333333
        k(    2) = (  -0.1666667   0.0000000   0.0000000), wk =   0.0000000
        k(    3) = (   0.1666667   0.0000000   0.0000000), wk =   0.3333333
        k(    4) = (  -0.0000000   0.0000000   0.0000000), wk =   0.0000000
        k(    5) = (   0.3333333   0.0000000   0.0000000), wk =   0.3333333
        k(    6) = (   0.1666666   0.0000000   0.0000000), wk =   0.0000000
        k(    7) = (  -0.5000000   0.0000000   0.0000000), wk =   0.3333333
        k(    8) = (  -0.6666667   0.0000000   0.0000000), wk =   0.0000000
        k(    9) = (  -0.1666667   0.0000000   0.0000000), wk =   0.3333333
        k(   10) = (  -0.3333334   0.0000000   0.0000000), wk =   0.0000000
        k(   11) = (  -0.3333333   0.0000000   0.0000000), wk =   0.3333333
        k(   12) = (  -0.5000000   0.0000000   0.0000000), wk =   0.0000000

                       cryst. coord.
        k(    1) = (   0.0000000   0.0000000   0.0000000), wk =   0.3333333
        k(    2) = (  -0.1666667   0.0000000   0.0000000), wk =   0.0000000
        k(    3) = (   0.1666667   0.0000000   0.0000000), wk =   0.3333333
        k(    4) = (  -0.0000000   0.0000000   0.0000000), wk =   0.0000000
        k(    5) = (   0.3333333   0.0000000   0.0000000), wk =   0.3333333
        k(    6) = (   0.1666666   0.0000000   0.0000000), wk =   0.0000000
        k(    7) = (  -0.5000000   0.0000000   0.0000000), wk =   0.3333333
        k(    8) = (  -0.6666667   0.0000000   0.0000000), wk =   0.0000000
        k(    9) = (  -0.1666667   0.0000000   0.0000000), wk =   0.3333333
        k(   10) = (  -0.3333334   0.0000000   0.0000000), wk =   0.0000000
        k(   11) = (  -0.3333333   0.0000000   0.0000000), wk =   0.3333333
        k(   12) = (  -0.5000000   0.0000000   0.0000000), wk =   0.0000000

     Dense  grid:    49989 G-vectors     FFT dimensions: (  30,  60,  60)

     Dynamical RAM for                 wfc:       0.76 MB

     Dynamical RAM for     wfc (w. buffer):       0.76 MB

     Dynamical RAM for           str. fact:       0.76 MB

     Dynamical RAM for           local pot:       0.02 MB

     Dynamical RAM for          nlocal pot:       0.95 MB

     Dynamical RAM for                qrad:       0.25 MB

     Dynamical RAM for          rho,v,vnew:       4.76 MB

     Dynamical RAM for           G-vectors:       3.24 MB

     Dynamical RAM for          h,s,v(r/c):       0.05 MB

     Dynamical RAM for          <psi|beta>:       0.00 MB

     Dynamical RAM for                 psi:       3.06 MB

     Dynamical RAM for                hpsi:       3.06 MB

     Dynamical RAM for      wfcinit/wfcrot:       1.53 MB

     Estimated static dynamical RAM per process >      16.40 MB

     Estimated max dynamical RAM per process >      22.56 MB

     The potential is recalculated from file :
     ./_ph0/hchain.save/charge-density

     Starting wfcs are    2 atomic +    6 random wfcs

     Band Structure Calculation
     Davidson diagonalization with overlap

     Computing kpt #:     1
     total cpu time spent up to now is        2.2 secs

     Computing kpt #:     2
     total cpu time spent up to now is        2.6 secs

     Computing kpt #:     3
     total cpu time spent up to now is        3.0 secs

     Computing kpt #:     4
     total cpu time spent up to now is        3.3 secs

     Computing kpt #:     5
     total cpu time spent up to now is        3.8 secs

     Computing kpt #:     6
     total cpu time spent up to now is        4.1 secs

     Computing kpt #:     7
     total cpu time spent up to now is        4.6 secs

     Computing kpt #:     8
     total cpu time spent up to now is        5.0 secs

     Computing kpt #:     9
     total cpu time spent up to now is        5.3 secs

     Computing kpt #:    10
     total cpu time spent up to now is        5.8 secs

     Computing kpt #:    11
     total cpu time spent up to now is        6.1 secs

     Computing kpt #:    12
     total cpu time spent up to now is        6.6 secs

     ethr =  5.00E-10,  avg # of iterations = 19.8

     total cpu time spent up to now is        6.6 secs

     End of band structure calculation

          k = 0.0000 0.0000 0.0000 (  6263 PWs)   bands (ev):

   -10.9360   0.0142   2.5304   2.5304   3.8964   7.1670   8.4171   8.4171

     occupation numbers 
     1.0000   0.0000   0.0000   0.0000   0.0000   0.0000   0.0000   0.0000

          k =-0.1667 0.0000 0.0000 (  6279 PWs)   bands (ev):

   -10.5933   0.4576   3.0821   3.0821   4.4526   5.6494   8.3714   8.9670

     occupation numbers 
     0.0000   0.0000   0.0000   0.0000   0.0000   0.0000   0.0000   0.0000

          k = 0.1667 0.0000 0.0000 (  6279 PWs)   bands (ev):

   -10.5933   0.4576   3.0821   3.0821   4.4526   5.6494   8.3714   8.9670

     occupation numbers 
     1.0000   0.0000   0.0000   0.0000   0.0000   0.0000   0.0000   0.0000

          k =-0.0000 0.0000 0.0000 (  6263 PWs)   bands (ev):

   -10.9360   0.0142   2.5304   2.5304   3.8964   7.1670   8.4171   8.4171

     occupation numbers 
     0.0000   0.0000   0.0000   0.0000   0.0000   0.0000   0.0000   0.0000

          k = 0.3333 0.0000 0.0000 (  6247 PWs)   bands (ev):

    -9.7653   0.8350   3.3066   4.7281   4.7281   6.1204   9.0377  10.1682

     occupation numbers 
     1.0000   0.0000   0.0000   0.0000   0.0000   0.0000   0.0000   0.0000

          k = 0.1667 0.0000 0.0000 (  6279 PWs)   bands (ev):

   -10.5933   0.4576   3.0821   3.0821   4.4526   5.6494   8.3714   8.9670

     occupation numbers 
     0.0000   0.0000   0.0000   0.0000   0.0000   0.0000   0.0000   0.0000

          k =-0.5000 0.0000 0.0000 (  6246 PWs)   bands (ev):

    -9.2371  -0.1217   4.8169   6.1250   7.0093   7.0093   8.0699   8.0699

     occupation numbers 
     1.0000   0.0000   0.0000   0.0000   0.0000   0.0000   0.0000   0.0000

          k =-0.6667 0.0000 0.0000 (  6247 PWs)   bands (ev):

    -9.7653   0.8350   3.3066   4.7281   4.7281   6.1204   9.0377  10.1682

     occupation numbers 
     0.0000   0.0000   0.0000   0.0000   0.0000   0.0000   0.0000   0.0000

          k =-0.1667 0.0000 0.0000 (  6279 PWs)   bands (ev):

   -10.5933   0.4576   3.0821   3.0821   4.4526   5.6494   8.3714   8.9670

     occupation numbers 
     1.0000   0.0000   0.0000   0.0000   0.0000   0.0000   0.0000   0.0000

          k =-0.3333 0.0000 0.0000 (  6247 PWs)   bands (ev):

    -9.7653   0.8350   3.3066   4.7281   4.7281   6.1204   9.0377  10.1682

     occupation numbers 
     0.0000   0.0000   0.0000   0.0000   0.0000   0.0000   0.0000   0.0000

          k =-0.3333 0.0000 0.0000 (  6247 PWs)   bands (ev):

    -9.7653   0.8350   3.3066   4.7281   4.7281   6.1204   9.0377  10.1682

     occupation numbers 
     1.0000   0.0000   0.0000   0.0000   0.0000   0.0000   0.0000   0.0000

          k =-0.5000 0.0000 0.0000 (  6246 PWs)   bands (ev):

    -9.2371  -0.1217   4.8169   6.1250   7.0093   7.0093   8.0699   8.0699

     occupation numbers 
     0.0000   0.0000   0.0000   0.0000   0.0000   0.0000   0.0000   0.0000

     highest occupied, lowest unoccupied level (ev):    -9.2371   -0.1217

     Writing config to output data dir ./_ph0/hchain.save/

     hchain_dvscf                                                               

     bravais-lattice index     =            8
     lattice parameter (alat)  =       5.1779  a.u.
     unit-cell volume          =     517.7850 (a.u.)^3
     number of atoms/cell      =            2
     number of atomic types    =            1
     kinetic-energy cut-off    =      80.0000  Ry
     charge density cut-off    =     320.0000  Ry
     convergence threshold     =      1.0E-12
     beta                      =       0.7000
     number of iterations used =            4
     Exchange-correlation= PBE
                           (   1   4   3   4   0   0   0)


     celldm(1)=    5.17785  celldm(2)=    1.93130  celldm(3)=    1.93130
     celldm(4)=    0.00000  celldm(5)=    0.00000  celldm(6)=    0.00000

     crystal axes: (cart. coord. in units of alat)
               a(1) = (  1.0000  0.0000  0.0000 )  
               a(2) = (  0.0000  1.9313  0.0000 )  
               a(3) = (  0.0000  0.0000  1.9313 )  

     reciprocal axes: (cart. coord. in units 2 pi/alat)
               b(1) = (  1.0000  0.0000  0.0000 )  
               b(2) = (  0.0000  0.5178  0.0000 )  
               b(3) = (  0.0000  0.0000  0.5178 )  


     Atoms inside the unit cell: 

     Cartesian axes

     site n.  atom      mass           positions (alat units)
        1     H    1.0079   tau(    1) = (    0.00000    0.00000    0.00000  )
        2     H    1.0079   tau(    2) = (    0.27007    0.00000    0.00000  )

     Computing dynamical matrix for 
                    q = (  -0.1666667   0.0000000   0.0000000 )

      8 Sym.Ops. (no q -> -q+G )

                                    s                        frac. trans.

      isym =  1     identity                                     

 cryst.   s( 1) = (     1          0          0      )
                  (     0          1          0      )
                  (     0          0          1      )

 cart.    s( 1) = (  1.0000000  0.0000000  0.0000000 )
                  (  0.0000000  1.0000000  0.0000000 )
                  (  0.0000000  0.0000000  1.0000000 )


      isym =  2     180 deg rotation - cart. axis [1,0,0]        

 cryst.   s( 2) = (     1          0          0      )
                  (     0         -1          0      )
                  (     0          0         -1      )

 cart.    s( 2) = (  1.0000000  0.0000000  0.0000000 )
                  (  0.0000000 -1.0000000  0.0000000 )
                  (  0.0000000  0.0000000 -1.0000000 )


      isym =  3      90 deg rotation - cart. axis [-1,0,0]       

 cryst.   s( 3) = (     1          0          0      )
                  (     0          0         -1      )
                  (     0          1          0      )

 cart.    s( 3) = (  1.0000000  0.0000000  0.0000000 )
                  (  0.0000000  0.0000000  1.0000000 )
                  (  0.0000000 -1.0000000  0.0000000 )


      isym =  4      90 deg rotation - cart. axis [1,0,0]        

 cryst.   s( 4) = (     1          0          0      )
                  (     0          0          1      )
                  (     0         -1          0      )

 cart.    s( 4) = (  1.0000000  0.0000000  0.0000000 )
                  (  0.0000000  0.0000000 -1.0000000 )
                  (  0.0000000  1.0000000  0.0000000 )


      isym =  5     inv. 180 deg rotation - cart. axis [0,0,1]   

 cryst.   s( 5) = (     1          0          0      )
                  (     0          1          0      )
                  (     0          0         -1      )

 cart.    s( 5) = (  1.0000000  0.0000000  0.0000000 )
                  (  0.0000000  1.0000000  0.0000000 )
                  (  0.0000000  0.0000000 -1.0000000 )


      isym =  6     inv. 180 deg rotation - cart. axis [0,1,0]   

 cryst.   s( 6) = (     1          0          0      )
                  (     0         -1          0      )
                  (     0          0          1      )

 cart.    s( 6) = (  1.0000000  0.0000000  0.0000000 )
                  (  0.0000000 -1.0000000  0.0000000 )
                  (  0.0000000  0.0000000  1.0000000 )


      isym =  7     inv. 180 deg rotation - cart. axis [0,1,1]   

 cryst.   s( 7) = (     1          0          0      )
                  (     0          0         -1      )
                  (     0         -1          0      )

 cart.    s( 7) = (  1.0000000  0.0000000  0.0000000 )
                  (  0.0000000  0.0000000 -1.0000000 )
                  (  0.0000000 -1.0000000  0.0000000 )


      isym =  8     inv. 180 deg rotation - cart. axis [0,1,-1]  

 cryst.   s( 8) = (     1          0          0      )
                  (     0          0          1      )
                  (     0          1          0      )

 cart.    s( 8) = (  1.0000000  0.0000000  0.0000000 )
                  (  0.0000000  0.0000000  1.0000000 )
                  (  0.0000000  1.0000000  0.0000000 )


     G cutoff =  217.3147  (  49989 G-vectors)     FFT grid: ( 30, 60, 60)
     number of k points=    12
                       cart. coord. in units 2pi/alat
        k(    1) = (   0.0000000   0.0000000   0.0000000), wk =   0.3333333
        k(    2) = (  -0.1666667   0.0000000   0.0000000), wk =   0.0000000
        k(    3) = (   0.1666667   0.0000000   0.0000000), wk =   0.3333333
        k(    4) = (  -0.0000000   0.0000000   0.0000000), wk =   0.0000000
        k(    5) = (   0.3333333   0.0000000   0.0000000), wk =   0.3333333
        k(    6) = (   0.1666666   0.0000000   0.0000000), wk =   0.0000000
        k(    7) = (  -0.5000000   0.0000000   0.0000000), wk =   0.3333333
        k(    8) = (  -0.6666667   0.0000000   0.0000000), wk =   0.0000000
        k(    9) = (  -0.1666667   0.0000000   0.0000000), wk =   0.3333333
        k(   10) = (  -0.3333334   0.0000000   0.0000000), wk =   0.0000000
        k(   11) = (  -0.3333333   0.0000000   0.0000000), wk =   0.3333333
        k(   12) = (  -0.5000000   0.0000000   0.0000000), wk =   0.0000000

                       cryst. coord.
        k(    1) = (   0.0000000   0.0000000   0.0000000), wk =   0.3333333
        k(    2) = (  -0.1666667   0.0000000   0.0000000), wk =   0.0000000
        k(    3) = (   0.1666667   0.0000000   0.0000000), wk =   0.3333333
        k(    4) = (  -0.0000000   0.0000000   0.0000000), wk =   0.0000000
        k(    5) = (   0.3333333   0.0000000   0.0000000), wk =   0.3333333
        k(    6) = (   0.1666666   0.0000000   0.0000000), wk =   0.0000000
        k(    7) = (  -0.5000000   0.0000000   0.0000000), wk =   0.3333333
        k(    8) = (  -0.6666667   0.0000000   0.0000000), wk =   0.0000000
        k(    9) = (  -0.1666667   0.0000000   0.0000000), wk =   0.3333333
        k(   10) = (  -0.3333334   0.0000000   0.0000000), wk =   0.0000000
        k(   11) = (  -0.3333333   0.0000000   0.0000000), wk =   0.3333333
        k(   12) = (  -0.5000000   0.0000000   0.0000000), wk =   0.0000000

     PseudoPot. # 1 for H  read from file:
     ./pseudo/H_ONCV_PBE.upf
     MD5 check sum: e96aa7e3e4a958db16958554ea960e2a
     Pseudo is Norm-conserving, Zval =  1.0
     Generated using ONCVPSP code by D. R. Hamann
     Using radial grid of 1166 points,  3 beta functions with: 
                l(1) =   0
                l(2) =   0
                l(3) =   1

     point group C_4v (4mm) 
     there are  5 classes
     the character table:

       E     2C4   C2    2s_v  2s_d 
A_1    1.00  1.00  1.00  1.00  1.00
A_2    1.00  1.00  1.00 -1.00 -1.00
B_1    1.00 -1.00  1.00  1.00 -1.00
B_2    1.00 -1.00  1.00 -1.00  1.00
E      2.00  0.00 -2.00  0.00  0.00

     the symmetry operations in each class and the name of the first element:

     E        1
          identity                                               
     2C4      3    4
           90 deg rotation - cart. axis [-1,0,0]                 
     C2       2
          180 deg rotation - cart. axis [1,0,0]                  
     2s_v     5    6
          inv. 180 deg rotation - cart. axis [0,0,1]             
     2s_d     7    8
          inv. 180 deg rotation - cart. axis [0,1,1]             


     Atomic displacements:
     There are    4 irreducible representations

     Representation     1      1 modes -  To be done
     Irreps are as follows:

                     mode #   1
                     (  -0.00000  -0.00000   ) 
                     (  -0.00000  -0.00000   ) 
                     (  -0.00000  -0.00000   ) 
                     (  -1.00000  -0.00000   ) 
                     (  -0.00000  -0.00000   ) 
                     (  -0.00000  -0.00000   ) 

     Representation     2      1 modes -  To be done
     Irreps are as follows:

                     mode #   2
                     (  -1.00000  -0.00000   ) 
                     (  -0.00000  -0.00000   ) 
                     (  -0.00000  -0.00000   ) 
                     (  -0.00000  -0.00000   ) 
                     (  -0.00000  -0.00000   ) 
                     (  -0.00000  -0.00000   ) 

     Representation     3      2 modes -  To be done
     Irreps are as follows:

           mode #   3                           mode #   4
           (  -0.00000  -0.00000   )            (  -0.00000  -0.00000   ) 
           (  -1.00000  -0.00000   )            (  -0.00000  -0.00000   ) 
           (  -0.00000  -0.00000   )            (  -1.00000  -0.00000   ) 
           (  -0.00000  -0.00000   )            (  -0.00000  -0.00000   ) 
           (  -0.00000  -0.00000   )            (  -0.00000  -0.00000   ) 
           (  -0.00000  -0.00000   )            (  -0.00000  -0.00000   ) 

     Representation     4      2 modes -  To be done
     Irreps are as follows:

           mode #   5                           mode #   6
           (  -0.00000  -0.00000   )            (  -0.00000  -0.00000   ) 
           (  -0.00000  -0.00000   )            (  -0.00000  -0.00000   ) 
           (  -0.00000  -0.00000   )            (  -0.00000  -0.00000   ) 
           (  -0.00000  -0.00000   )            (  -0.00000  -0.00000   ) 
           (  -1.00000  -0.00000   )            (  -0.00000  -0.00000   ) 
           (  -0.00000  -0.00000   )            (  -1.00000  -0.00000   ) 


     PHONON       :      8.66s CPU      8.75s WALL

     Reading dVscf from file hchain-dvscf2_
     Reading dynamics matrix from file hchain.dyn2

     Diagonalizing the dynamical matrix

     q = (   -0.166666700   0.000000000   0.000000000 ) 

 **************************************************************************
     freq (    1) =     -16.685588 [THz] =    -556.571300 [cm-1]
     freq (    2) =     -16.685588 [THz] =    -556.571300 [cm-1]
     freq (    3) =       1.287070 [THz] =      42.932029 [cm-1]
     freq (    4) =       1.287070 [THz] =      42.932029 [cm-1]
     freq (    5) =       6.850715 [THz] =     228.515261 [cm-1]
     freq (    6) =     132.505652 [THz] =    4419.912791 [cm-1]
 **************************************************************************
     electron-phonon interaction (to be used in YAMBO)  ...


     Calculation of q =   -0.3333333   0.0000000   0.0000000

     G-vector sticks info
     --------------------
     sticks:   dense  smooth     PW     G-vecs:    dense   smooth      PW
     Sum        1313    1313    407                49989    49989    8617

     Using Slab Decomposition


     Title: 
     hchain_dvscf                                                               


     bravais-lattice index     =            8
     lattice parameter (alat)  =       5.1779  a.u.
     unit-cell volume          =     517.7850 (a.u.)^3
     number of atoms/cell      =            2
     number of atomic types    =            1
     number of electrons       =         2.00
     number of Kohn-Sham states=            8
     kinetic-energy cutoff     =      80.0000  Ry
     charge density cutoff     =     320.0000  Ry
     Exchange-correlation= PBE
                           (   1   4   3   4   0   0   0)

     celldm(1)=   5.177850  celldm(2)=   1.931304  celldm(3)=   1.931304
     celldm(4)=   0.000000  celldm(5)=   0.000000  celldm(6)=   0.000000

     crystal axes: (cart. coord. in units of alat)
               a(1) = (   1.000000   0.000000   0.000000 )  
               a(2) = (   0.000000   1.931304   0.000000 )  
               a(3) = (   0.000000   0.000000   1.931304 )  

     reciprocal axes: (cart. coord. in units 2 pi/alat)
               b(1) = (  1.000000  0.000000  0.000000 )  
               b(2) = (  0.000000  0.517785  0.000000 )  
               b(3) = (  0.000000  0.000000  0.517785 )  


     PseudoPot. # 1 for H  read from file:
     ./pseudo/H_ONCV_PBE.upf
     MD5 check sum: e96aa7e3e4a958db16958554ea960e2a
     Pseudo is Norm-conserving, Zval =  1.0
     Generated using ONCVPSP code by D. R. Hamann
     Using radial grid of 1166 points,  3 beta functions with: 
                l(1) =   0
                l(2) =   0
                l(3) =   1

     atomic species   valence    mass     pseudopotential
        H              1.00     1.00794     H ( 1.00)

      8 Sym. Ops. (no inversion) found


                                    s                        frac. trans.

      isym =  1     identity                                     

 cryst.   s( 1) = (     1          0          0      )
                  (     0          1          0      )
                  (     0          0          1      )

 cart.    s( 1) = (  1.0000000  0.0000000  0.0000000 )
                  (  0.0000000  1.0000000  0.0000000 )
                  (  0.0000000  0.0000000  1.0000000 )


      isym =  2     180 deg rotation - cart. axis [1,0,0]        

 cryst.   s( 2) = (     1          0          0      )
                  (     0         -1          0      )
                  (     0          0         -1      )

 cart.    s( 2) = (  1.0000000  0.0000000  0.0000000 )
                  (  0.0000000 -1.0000000  0.0000000 )
                  (  0.0000000  0.0000000 -1.0000000 )


      isym =  3      90 deg rotation - cart. axis [-1,0,0]       

 cryst.   s( 3) = (     1          0          0      )
                  (     0          0         -1      )
                  (     0          1          0      )

 cart.    s( 3) = (  1.0000000  0.0000000  0.0000000 )
                  (  0.0000000  0.0000000  1.0000000 )
                  (  0.0000000 -1.0000000  0.0000000 )


      isym =  4      90 deg rotation - cart. axis [1,0,0]        

 cryst.   s( 4) = (     1          0          0      )
                  (     0          0          1      )
                  (     0         -1          0      )

 cart.    s( 4) = (  1.0000000  0.0000000  0.0000000 )
                  (  0.0000000  0.0000000 -1.0000000 )
                  (  0.0000000  1.0000000  0.0000000 )


      isym =  5     inv. 180 deg rotation - cart. axis [0,0,1]   

 cryst.   s( 5) = (     1          0          0      )
                  (     0          1          0      )
                  (     0          0         -1      )

 cart.    s( 5) = (  1.0000000  0.0000000  0.0000000 )
                  (  0.0000000  1.0000000  0.0000000 )
                  (  0.0000000  0.0000000 -1.0000000 )


      isym =  6     inv. 180 deg rotation - cart. axis [0,1,0]   

 cryst.   s( 6) = (     1          0          0      )
                  (     0         -1          0      )
                  (     0          0          1      )

 cart.    s( 6) = (  1.0000000  0.0000000  0.0000000 )
                  (  0.0000000 -1.0000000  0.0000000 )
                  (  0.0000000  0.0000000  1.0000000 )


      isym =  7     inv. 180 deg rotation - cart. axis [0,1,1]   

 cryst.   s( 7) = (     1          0          0      )
                  (     0          0         -1      )
                  (     0         -1          0      )

 cart.    s( 7) = (  1.0000000  0.0000000  0.0000000 )
                  (  0.0000000  0.0000000 -1.0000000 )
                  (  0.0000000 -1.0000000  0.0000000 )


      isym =  8     inv. 180 deg rotation - cart. axis [0,1,-1]  

 cryst.   s( 8) = (     1          0          0      )
                  (     0          0          1      )
                  (     0          1          0      )

 cart.    s( 8) = (  1.0000000  0.0000000  0.0000000 )
                  (  0.0000000  0.0000000  1.0000000 )
                  (  0.0000000  1.0000000  0.0000000 )


     point group C_4v (4mm) 
     there are  5 classes
     the character table:

       E     2C4   C2    2s_v  2s_d 
A_1    1.00  1.00  1.00  1.00  1.00
A_2    1.00  1.00  1.00 -1.00 -1.00
B_1    1.00 -1.00  1.00  1.00 -1.00
B_2    1.00 -1.00  1.00 -1.00  1.00
E      2.00  0.00 -2.00  0.00  0.00

     the symmetry operations in each class and the name of the first element:

     E        1
          identity                                               
     2C4      3    4
           90 deg rotation - cart. axis [-1,0,0]                 
     C2       2
          180 deg rotation - cart. axis [1,0,0]                  
     2s_v     5    6
          inv. 180 deg rotation - cart. axis [0,0,1]             
     2s_d     7    8
          inv. 180 deg rotation - cart. axis [0,1,1]             

   Cartesian axes

     site n.     atom                  positions (alat units)
         1           H   tau(   1) = (   0.0000000   0.0000000   0.0000000  )
         2           H   tau(   2) = (   0.2700730   0.0000000   0.0000000  )

   Crystallographic axes

     site n.     atom                  positions (cryst. coord.)
         1           H   tau(   1) = (  0.0000000  0.0000000  0.0000000  )
         2           H   tau(   2) = (  0.2700730  0.0000000  0.0000000  )

     number of k points=    12
                       cart. coord. in units 2pi/alat
        k(    1) = (   0.0000000   0.0000000   0.0000000), wk =   0.3333333
        k(    2) = (  -0.3333333   0.0000000   0.0000000), wk =   0.0000000
        k(    3) = (   0.1666667   0.0000000   0.0000000), wk =   0.3333333
        k(    4) = (  -0.1666666   0.0000000   0.0000000), wk =   0.0000000
        k(    5) = (   0.3333333   0.0000000   0.0000000), wk =   0.3333333
        k(    6) = (   0.0000000   0.0000000   0.0000000), wk =   0.0000000
        k(    7) = (  -0.5000000   0.0000000   0.0000000), wk =   0.3333333
        k(    8) = (  -0.8333333   0.0000000   0.0000000), wk =   0.0000000
        k(    9) = (  -0.1666667   0.0000000   0.0000000), wk =   0.3333333
        k(   10) = (  -0.5000000   0.0000000   0.0000000), wk =   0.0000000
        k(   11) = (  -0.3333333   0.0000000   0.0000000), wk =   0.3333333
        k(   12) = (  -0.6666666   0.0000000   0.0000000), wk =   0.0000000

                       cryst. coord.
        k(    1) = (   0.0000000   0.0000000   0.0000000), wk =   0.3333333
        k(    2) = (  -0.3333333   0.0000000   0.0000000), wk =   0.0000000
        k(    3) = (   0.1666667   0.0000000   0.0000000), wk =   0.3333333
        k(    4) = (  -0.1666666   0.0000000   0.0000000), wk =   0.0000000
        k(    5) = (   0.3333333   0.0000000   0.0000000), wk =   0.3333333
        k(    6) = (   0.0000000   0.0000000   0.0000000), wk =   0.0000000
        k(    7) = (  -0.5000000   0.0000000   0.0000000), wk =   0.3333333
        k(    8) = (  -0.8333333   0.0000000   0.0000000), wk =   0.0000000
        k(    9) = (  -0.1666667   0.0000000   0.0000000), wk =   0.3333333
        k(   10) = (  -0.5000000   0.0000000   0.0000000), wk =   0.0000000
        k(   11) = (  -0.3333333   0.0000000   0.0000000), wk =   0.3333333
        k(   12) = (  -0.6666666   0.0000000   0.0000000), wk =   0.0000000

     Dense  grid:    49989 G-vectors     FFT dimensions: (  30,  60,  60)

     Dynamical RAM for                 wfc:       0.76 MB

     Dynamical RAM for     wfc (w. buffer):       0.76 MB

     Dynamical RAM for           str. fact:       0.76 MB

     Dynamical RAM for           local pot:       0.02 MB

     Dynamical RAM for          nlocal pot:       0.95 MB

     Dynamical RAM for                qrad:       0.25 MB

     Dynamical RAM for          rho,v,vnew:       4.76 MB

     Dynamical RAM for           G-vectors:       3.24 MB

     Dynamical RAM for          h,s,v(r/c):       0.05 MB

     Dynamical RAM for          <psi|beta>:       0.00 MB

     Dynamical RAM for                 psi:       3.06 MB

     Dynamical RAM for                hpsi:       3.06 MB

     Dynamical RAM for      wfcinit/wfcrot:       1.53 MB

     Estimated static dynamical RAM per process >      16.40 MB

     Estimated max dynamical RAM per process >      22.56 MB

     The potential is recalculated from file :
     ./_ph0/hchain.save/charge-density

     Starting wfcs are    2 atomic +    6 random wfcs

     Band Structure Calculation
     Davidson diagonalization with overlap

     Computing kpt #:     1
     total cpu time spent up to now is        7.1 secs

     Computing kpt #:     2
     total cpu time spent up to now is        7.5 secs

     Computing kpt #:     3
     total cpu time spent up to now is        7.8 secs

     Computing kpt #:     4
     total cpu time spent up to now is        8.2 secs

     Computing kpt #:     5
     total cpu time spent up to now is        8.7 secs

     Computing kpt #:     6
     total cpu time spent up to now is        9.0 secs

     Computing kpt #:     7
     total cpu time spent up to now is        9.5 secs

     Computing kpt #:     8
     total cpu time spent up to now is        9.9 secs

     Computing kpt #:     9
     total cpu time spent up to now is       10.2 secs

     Computing kpt #:    10
     total cpu time spent up to now is       10.7 secs

     Computing kpt #:    11
     total cpu time spent up to now is       11.2 secs

     Computing kpt #:    12
     total cpu time spent up to now is       11.6 secs

     ethr =  5.00E-10,  avg # of iterations = 19.7

     total cpu time spent up to now is       11.6 secs

     End of band structure calculation

          k = 0.0000 0.0000 0.0000 (  6263 PWs)   bands (ev):

   -10.9360   0.0142   2.5304   2.5304   3.8964   7.1670   8.4171   8.4171

     occupation numbers 
     1.0000   0.0000   0.0000   0.0000   0.0000   0.0000   0.0000   0.0000

          k =-0.3333 0.0000 0.0000 (  6247 PWs)   bands (ev):

    -9.7653   0.8350   3.3066   4.7281   4.7281   6.1204   9.0377  10.1682

     occupation numbers 
     0.0000   0.0000   0.0000   0.0000   0.0000   0.0000   0.0000   0.0000

          k = 0.1667 0.0000 0.0000 (  6279 PWs)   bands (ev):

   -10.5933   0.4576   3.0821   3.0821   4.4526   5.6494   8.3714   8.9670

     occupation numbers 
     1.0000   0.0000   0.0000   0.0000   0.0000   0.0000   0.0000   0.0000

          k =-0.1667 0.0000 0.0000 (  6279 PWs)   bands (ev):

   -10.5933   0.4576   3.0821   3.0821   4.4526   5.6494   8.3714   8.9670

     occupation numbers 
     0.0000   0.0000   0.0000   0.0000   0.0000   0.0000   0.0000   0.0000

          k = 0.3333 0.0000 0.0000 (  6247 PWs)   bands (ev):

    -9.7653   0.8350   3.3066   4.7281   4.7281   6.1204   9.0377  10.1682

     occupation numbers 
     1.0000   0.0000   0.0000   0.0000   0.0000   0.0000   0.0000   0.0000

          k = 0.0000 0.0000 0.0000 (  6263 PWs)   bands (ev):

   -10.9360   0.0142   2.5304   2.5304   3.8964   7.1670   8.4171   8.4171

     occupation numbers 
     0.0000   0.0000   0.0000   0.0000   0.0000   0.0000   0.0000   0.0000

          k =-0.5000 0.0000 0.0000 (  6246 PWs)   bands (ev):

    -9.2371  -0.1217   4.8169   6.1250   7.0093   7.0093   8.0699   8.0699

     occupation numbers 
     1.0000   0.0000   0.0000   0.0000   0.0000   0.0000   0.0000   0.0000

          k =-0.8333 0.0000 0.0000 (  6279 PWs)   bands (ev):

   -10.5933   0.4576   3.0821   3.0821   4.4526   5.6494   8.3714   8.9670

     occupation numbers 
     0.0000   0.0000   0.0000   0.0000   0.0000   0.0000   0.0000   0.0000

          k =-0.1667 0.0000 0.0000 (  6279 PWs)   bands (ev):

   -10.5933   0.4576   3.0821   3.0821   4.4526   5.6494   8.3714   8.9670

     occupation numbers 
     1.0000   0.0000   0.0000   0.0000   0.0000   0.0000   0.0000   0.0000

          k =-0.5000 0.0000 0.0000 (  6246 PWs)   bands (ev):

    -9.2371  -0.1217   4.8169   6.1250   7.0093   7.0093   8.0699   8.0699

     occupation numbers 
     0.0000   0.0000   0.0000   0.0000   0.0000   0.0000   0.0000   0.0000

          k =-0.3333 0.0000 0.0000 (  6247 PWs)   bands (ev):

    -9.7653   0.8350   3.3066   4.7281   4.7281   6.1204   9.0377  10.1682

     occupation numbers 
     1.0000   0.0000   0.0000   0.0000   0.0000   0.0000   0.0000   0.0000

          k =-0.6667 0.0000 0.0000 (  6247 PWs)   bands (ev):

    -9.7653   0.8350   3.3066   4.7281   4.7281   6.1204   9.0377  10.1682

     occupation numbers 
     0.0000   0.0000   0.0000   0.0000   0.0000   0.0000   0.0000   0.0000

     highest occupied, lowest unoccupied level (ev):    -9.2371   -0.1217

     Writing config to output data dir ./_ph0/hchain.save/

     hchain_dvscf                                                               

     bravais-lattice index     =            8
     lattice parameter (alat)  =       5.1779  a.u.
     unit-cell volume          =     517.7850 (a.u.)^3
     number of atoms/cell      =            2
     number of atomic types    =            1
     kinetic-energy cut-off    =      80.0000  Ry
     charge density cut-off    =     320.0000  Ry
     convergence threshold     =      1.0E-12
     beta                      =       0.7000
     number of iterations used =            4
     Exchange-correlation= PBE
                           (   1   4   3   4   0   0   0)


     celldm(1)=    5.17785  celldm(2)=    1.93130  celldm(3)=    1.93130
     celldm(4)=    0.00000  celldm(5)=    0.00000  celldm(6)=    0.00000

     crystal axes: (cart. coord. in units of alat)
               a(1) = (  1.0000  0.0000  0.0000 )  
               a(2) = (  0.0000  1.9313  0.0000 )  
               a(3) = (  0.0000  0.0000  1.9313 )  

     reciprocal axes: (cart. coord. in units 2 pi/alat)
               b(1) = (  1.0000  0.0000  0.0000 )  
               b(2) = (  0.0000  0.5178  0.0000 )  
               b(3) = (  0.0000  0.0000  0.5178 )  


     Atoms inside the unit cell: 

     Cartesian axes

     site n.  atom      mass           positions (alat units)
        1     H    1.0079   tau(    1) = (    0.00000    0.00000    0.00000  )
        2     H    1.0079   tau(    2) = (    0.27007    0.00000    0.00000  )

     Computing dynamical matrix for 
                    q = (  -0.3333333   0.0000000   0.0000000 )

      8 Sym.Ops. (no q -> -q+G )

                                    s                        frac. trans.

      isym =  1     identity                                     

 cryst.   s( 1) = (     1          0          0      )
                  (     0          1          0      )
                  (     0          0          1      )

 cart.    s( 1) = (  1.0000000  0.0000000  0.0000000 )
                  (  0.0000000  1.0000000  0.0000000 )
                  (  0.0000000  0.0000000  1.0000000 )


      isym =  2     180 deg rotation - cart. axis [1,0,0]        

 cryst.   s( 2) = (     1          0          0      )
                  (     0         -1          0      )
                  (     0          0         -1      )

 cart.    s( 2) = (  1.0000000  0.0000000  0.0000000 )
                  (  0.0000000 -1.0000000  0.0000000 )
                  (  0.0000000  0.0000000 -1.0000000 )


      isym =  3      90 deg rotation - cart. axis [-1,0,0]       

 cryst.   s( 3) = (     1          0          0      )
                  (     0          0         -1      )
                  (     0          1          0      )

 cart.    s( 3) = (  1.0000000  0.0000000  0.0000000 )
                  (  0.0000000  0.0000000  1.0000000 )
                  (  0.0000000 -1.0000000  0.0000000 )


      isym =  4      90 deg rotation - cart. axis [1,0,0]        

 cryst.   s( 4) = (     1          0          0      )
                  (     0          0          1      )
                  (     0         -1          0      )

 cart.    s( 4) = (  1.0000000  0.0000000  0.0000000 )
                  (  0.0000000  0.0000000 -1.0000000 )
                  (  0.0000000  1.0000000  0.0000000 )


      isym =  5     inv. 180 deg rotation - cart. axis [0,0,1]   

 cryst.   s( 5) = (     1          0          0      )
                  (     0          1          0      )
                  (     0          0         -1      )

 cart.    s( 5) = (  1.0000000  0.0000000  0.0000000 )
                  (  0.0000000  1.0000000  0.0000000 )
                  (  0.0000000  0.0000000 -1.0000000 )


      isym =  6     inv. 180 deg rotation - cart. axis [0,1,0]   

 cryst.   s( 6) = (     1          0          0      )
                  (     0         -1          0      )
                  (     0          0          1      )

 cart.    s( 6) = (  1.0000000  0.0000000  0.0000000 )
                  (  0.0000000 -1.0000000  0.0000000 )
                  (  0.0000000  0.0000000  1.0000000 )


      isym =  7     inv. 180 deg rotation - cart. axis [0,1,1]   

 cryst.   s( 7) = (     1          0          0      )
                  (     0          0         -1      )
                  (     0         -1          0      )

 cart.    s( 7) = (  1.0000000  0.0000000  0.0000000 )
                  (  0.0000000  0.0000000 -1.0000000 )
                  (  0.0000000 -1.0000000  0.0000000 )


      isym =  8     inv. 180 deg rotation - cart. axis [0,1,-1]  

 cryst.   s( 8) = (     1          0          0      )
                  (     0          0          1      )
                  (     0          1          0      )

 cart.    s( 8) = (  1.0000000  0.0000000  0.0000000 )
                  (  0.0000000  0.0000000  1.0000000 )
                  (  0.0000000  1.0000000  0.0000000 )


     G cutoff =  217.3147  (  49989 G-vectors)     FFT grid: ( 30, 60, 60)
     number of k points=    12
                       cart. coord. in units 2pi/alat
        k(    1) = (   0.0000000   0.0000000   0.0000000), wk =   0.3333333
        k(    2) = (  -0.3333333   0.0000000   0.0000000), wk =   0.0000000
        k(    3) = (   0.1666667   0.0000000   0.0000000), wk =   0.3333333
        k(    4) = (  -0.1666666   0.0000000   0.0000000), wk =   0.0000000
        k(    5) = (   0.3333333   0.0000000   0.0000000), wk =   0.3333333
        k(    6) = (   0.0000000   0.0000000   0.0000000), wk =   0.0000000
        k(    7) = (  -0.5000000   0.0000000   0.0000000), wk =   0.3333333
        k(    8) = (  -0.8333333   0.0000000   0.0000000), wk =   0.0000000
        k(    9) = (  -0.1666667   0.0000000   0.0000000), wk =   0.3333333
        k(   10) = (  -0.5000000   0.0000000   0.0000000), wk =   0.0000000
        k(   11) = (  -0.3333333   0.0000000   0.0000000), wk =   0.3333333
        k(   12) = (  -0.6666666   0.0000000   0.0000000), wk =   0.0000000

                       cryst. coord.
        k(    1) = (   0.0000000   0.0000000   0.0000000), wk =   0.3333333
        k(    2) = (  -0.3333333   0.0000000   0.0000000), wk =   0.0000000
        k(    3) = (   0.1666667   0.0000000   0.0000000), wk =   0.3333333
        k(    4) = (  -0.1666666   0.0000000   0.0000000), wk =   0.0000000
        k(    5) = (   0.3333333   0.0000000   0.0000000), wk =   0.3333333
        k(    6) = (   0.0000000   0.0000000   0.0000000), wk =   0.0000000
        k(    7) = (  -0.5000000   0.0000000   0.0000000), wk =   0.3333333
        k(    8) = (  -0.8333333   0.0000000   0.0000000), wk =   0.0000000
        k(    9) = (  -0.1666667   0.0000000   0.0000000), wk =   0.3333333
        k(   10) = (  -0.5000000   0.0000000   0.0000000), wk =   0.0000000
        k(   11) = (  -0.3333333   0.0000000   0.0000000), wk =   0.3333333
        k(   12) = (  -0.6666666   0.0000000   0.0000000), wk =   0.0000000

     PseudoPot. # 1 for H  read from file:
     ./pseudo/H_ONCV_PBE.upf
     MD5 check sum: e96aa7e3e4a958db16958554ea960e2a
     Pseudo is Norm-conserving, Zval =  1.0
     Generated using ONCVPSP code by D. R. Hamann
     Using radial grid of 1166 points,  3 beta functions with: 
                l(1) =   0
                l(2) =   0
                l(3) =   1

     point group C_4v (4mm) 
     there are  5 classes
     the character table:

       E     2C4   C2    2s_v  2s_d 
A_1    1.00  1.00  1.00  1.00  1.00
A_2    1.00  1.00  1.00 -1.00 -1.00
B_1    1.00 -1.00  1.00  1.00 -1.00
B_2    1.00 -1.00  1.00 -1.00  1.00
E      2.00  0.00 -2.00  0.00  0.00

     the symmetry operations in each class and the name of the first element:

     E        1
          identity                                               
     2C4      3    4
           90 deg rotation - cart. axis [-1,0,0]                 
     C2       2
          180 deg rotation - cart. axis [1,0,0]                  
     2s_v     5    6
          inv. 180 deg rotation - cart. axis [0,0,1]             
     2s_d     7    8
          inv. 180 deg rotation - cart. axis [0,1,1]             


     Atomic displacements:
     There are    4 irreducible representations

     Representation     1      1 modes -  To be done
     Irreps are as follows:

                     mode #   1
                     (  -0.00000  -0.00000   ) 
                     (  -0.00000  -0.00000   ) 
                     (  -0.00000  -0.00000   ) 
                     (  -1.00000  -0.00000   ) 
                     (  -0.00000  -0.00000   ) 
                     (  -0.00000  -0.00000   ) 

     Representation     2      1 modes -  To be done
     Irreps are as follows:

                     mode #   2
                     (  -1.00000  -0.00000   ) 
                     (  -0.00000  -0.00000   ) 
                     (  -0.00000  -0.00000   ) 
                     (  -0.00000  -0.00000   ) 
                     (  -0.00000  -0.00000   ) 
                     (  -0.00000  -0.00000   ) 

     Representation     3      2 modes -  To be done
     Irreps are as follows:

           mode #   3                           mode #   4
           (  -0.00000  -0.00000   )            (  -0.00000  -0.00000   ) 
           (  -1.00000  -0.00000   )            (  -0.00000  -0.00000   ) 
           (  -0.00000  -0.00000   )            (  -1.00000  -0.00000   ) 
           (  -0.00000  -0.00000   )            (  -0.00000  -0.00000   ) 
           (  -0.00000  -0.00000   )            (  -0.00000  -0.00000   ) 
           (  -0.00000  -0.00000   )            (  -0.00000  -0.00000   ) 

     Representation     4      2 modes -  To be done
     Irreps are as follows:

           mode #   5                           mode #   6
           (  -0.00000  -0.00000   )            (  -0.00000  -0.00000   ) 
           (  -0.00000  -0.00000   )            (  -0.00000  -0.00000   ) 
           (  -0.00000  -0.00000   )            (  -0.00000  -0.00000   ) 
           (  -0.00000  -0.00000   )            (  -0.00000  -0.00000   ) 
           (  -1.00000  -0.00000   )            (  -0.00000  -0.00000   ) 
           (  -0.00000  -0.00000   )            (  -1.00000  -0.00000   ) 


     PHONON       :     15.91s CPU     16.05s WALL

     Reading dVscf from file hchain-dvscf3_
     Reading dynamics matrix from file hchain.dyn3

     Diagonalizing the dynamical matrix

     q = (   -0.333333300   0.000000000   0.000000000 ) 

 **************************************************************************
     freq (    1) =     -15.703725 [THz] =    -523.819893 [cm-1]
     freq (    2) =     -15.703725 [THz] =    -523.819893 [cm-1]
     freq (    3) =      -3.130225 [THz] =    -104.413071 [cm-1]
     freq (    4) =      -3.130225 [THz] =    -104.413071 [cm-1]
     freq (    5) =      11.573488 [THz] =     386.050006 [cm-1]
     freq (    6) =     132.803464 [THz] =    4429.846740 [cm-1]
 **************************************************************************
     electron-phonon interaction (to be used in YAMBO)  ...


     Calculation of q =    0.5000000   0.0000000   0.0000000

     G-vector sticks info
     --------------------
     sticks:   dense  smooth     PW     G-vecs:    dense   smooth      PW
     Sum        1313    1313    407                49989    49989    8617

     Using Slab Decomposition


     Title: 
     hchain_dvscf                                                               


     bravais-lattice index     =            8
     lattice parameter (alat)  =       5.1779  a.u.
     unit-cell volume          =     517.7850 (a.u.)^3
     number of atoms/cell      =            2
     number of atomic types    =            1
     number of electrons       =         2.00
     number of Kohn-Sham states=            8
     kinetic-energy cutoff     =      80.0000  Ry
     charge density cutoff     =     320.0000  Ry
     Exchange-correlation= PBE
                           (   1   4   3   4   0   0   0)

     celldm(1)=   5.177850  celldm(2)=   1.931304  celldm(3)=   1.931304
     celldm(4)=   0.000000  celldm(5)=   0.000000  celldm(6)=   0.000000

     crystal axes: (cart. coord. in units of alat)
               a(1) = (   1.000000   0.000000   0.000000 )  
               a(2) = (   0.000000   1.931304   0.000000 )  
               a(3) = (   0.000000   0.000000   1.931304 )  

     reciprocal axes: (cart. coord. in units 2 pi/alat)
               b(1) = (  1.000000  0.000000  0.000000 )  
               b(2) = (  0.000000  0.517785  0.000000 )  
               b(3) = (  0.000000  0.000000  0.517785 )  


     PseudoPot. # 1 for H  read from file:
     ./pseudo/H_ONCV_PBE.upf
     MD5 check sum: e96aa7e3e4a958db16958554ea960e2a
     Pseudo is Norm-conserving, Zval =  1.0
     Generated using ONCVPSP code by D. R. Hamann
     Using radial grid of 1166 points,  3 beta functions with: 
                l(1) =   0
                l(2) =   0
                l(3) =   1

     atomic species   valence    mass     pseudopotential
        H              1.00     1.00794     H ( 1.00)

      8 Sym. Ops. (no inversion) found


                                    s                        frac. trans.

      isym =  1     identity                                     

 cryst.   s( 1) = (     1          0          0      )
                  (     0          1          0      )
                  (     0          0          1      )

 cart.    s( 1) = (  1.0000000  0.0000000  0.0000000 )
                  (  0.0000000  1.0000000  0.0000000 )
                  (  0.0000000  0.0000000  1.0000000 )


      isym =  2     180 deg rotation - cart. axis [1,0,0]        

 cryst.   s( 2) = (     1          0          0      )
                  (     0         -1          0      )
                  (     0          0         -1      )

 cart.    s( 2) = (  1.0000000  0.0000000  0.0000000 )
                  (  0.0000000 -1.0000000  0.0000000 )
                  (  0.0000000  0.0000000 -1.0000000 )


      isym =  3      90 deg rotation - cart. axis [-1,0,0]       

 cryst.   s( 3) = (     1          0          0      )
                  (     0          0         -1      )
                  (     0          1          0      )

 cart.    s( 3) = (  1.0000000  0.0000000  0.0000000 )
                  (  0.0000000  0.0000000  1.0000000 )
                  (  0.0000000 -1.0000000  0.0000000 )


      isym =  4      90 deg rotation - cart. axis [1,0,0]        

 cryst.   s( 4) = (     1          0          0      )
                  (     0          0          1      )
                  (     0         -1          0      )

 cart.    s( 4) = (  1.0000000  0.0000000  0.0000000 )
                  (  0.0000000  0.0000000 -1.0000000 )
                  (  0.0000000  1.0000000  0.0000000 )


      isym =  5     inv. 180 deg rotation - cart. axis [0,0,1]   

 cryst.   s( 5) = (     1          0          0      )
                  (     0          1          0      )
                  (     0          0         -1      )

 cart.    s( 5) = (  1.0000000  0.0000000  0.0000000 )
                  (  0.0000000  1.0000000  0.0000000 )
                  (  0.0000000  0.0000000 -1.0000000 )


      isym =  6     inv. 180 deg rotation - cart. axis [0,1,0]   

 cryst.   s( 6) = (     1          0          0      )
                  (     0         -1          0      )
                  (     0          0          1      )

 cart.    s( 6) = (  1.0000000  0.0000000  0.0000000 )
                  (  0.0000000 -1.0000000  0.0000000 )
                  (  0.0000000  0.0000000  1.0000000 )


      isym =  7     inv. 180 deg rotation - cart. axis [0,1,1]   

 cryst.   s( 7) = (     1          0          0      )
                  (     0          0         -1      )
                  (     0         -1          0      )

 cart.    s( 7) = (  1.0000000  0.0000000  0.0000000 )
                  (  0.0000000  0.0000000 -1.0000000 )
                  (  0.0000000 -1.0000000  0.0000000 )


      isym =  8     inv. 180 deg rotation - cart. axis [0,1,-1]  

 cryst.   s( 8) = (     1          0          0      )
                  (     0          0          1      )
                  (     0          1          0      )

 cart.    s( 8) = (  1.0000000  0.0000000  0.0000000 )
                  (  0.0000000  0.0000000  1.0000000 )
                  (  0.0000000  1.0000000  0.0000000 )


     point group C_4v (4mm) 
     there are  5 classes
     the character table:

       E     2C4   C2    2s_v  2s_d 
A_1    1.00  1.00  1.00  1.00  1.00
A_2    1.00  1.00  1.00 -1.00 -1.00
B_1    1.00 -1.00  1.00  1.00 -1.00
B_2    1.00 -1.00  1.00 -1.00  1.00
E      2.00  0.00 -2.00  0.00  0.00

     the symmetry operations in each class and the name of the first element:

     E        1
          identity                                               
     2C4      3    4
           90 deg rotation - cart. axis [-1,0,0]                 
     C2       2
          180 deg rotation - cart. axis [1,0,0]                  
     2s_v     5    6
          inv. 180 deg rotation - cart. axis [0,0,1]             
     2s_d     7    8
          inv. 180 deg rotation - cart. axis [0,1,1]             

   Cartesian axes

     site n.     atom                  positions (alat units)
         1           H   tau(   1) = (   0.0000000   0.0000000   0.0000000  )
         2           H   tau(   2) = (   0.2700730   0.0000000   0.0000000  )

   Crystallographic axes

     site n.     atom                  positions (cryst. coord.)
         1           H   tau(   1) = (  0.0000000  0.0000000  0.0000000  )
         2           H   tau(   2) = (  0.2700730  0.0000000  0.0000000  )

     number of k points=     8
                       cart. coord. in units 2pi/alat
        k(    1) = (   0.0000000   0.0000000   0.0000000), wk =   0.3333333
        k(    2) = (   0.5000000   0.0000000   0.0000000), wk =   0.0000000
        k(    3) = (   0.1666667   0.0000000   0.0000000), wk =   0.6666667
        k(    4) = (   0.6666667   0.0000000   0.0000000), wk =   0.0000000
        k(    5) = (   0.3333333   0.0000000   0.0000000), wk =   0.6666667
        k(    6) = (   0.8333333   0.0000000   0.0000000), wk =   0.0000000
        k(    7) = (  -0.5000000   0.0000000   0.0000000), wk =   0.3333333
        k(    8) = (   0.0000000   0.0000000   0.0000000), wk =   0.0000000

                       cryst. coord.
        k(    1) = (   0.0000000   0.0000000   0.0000000), wk =   0.3333333
        k(    2) = (   0.5000000   0.0000000   0.0000000), wk =   0.0000000
        k(    3) = (   0.1666667   0.0000000   0.0000000), wk =   0.6666667
        k(    4) = (   0.6666667   0.0000000   0.0000000), wk =   0.0000000
        k(    5) = (   0.3333333   0.0000000   0.0000000), wk =   0.6666667
        k(    6) = (   0.8333333   0.0000000   0.0000000), wk =   0.0000000
        k(    7) = (  -0.5000000   0.0000000   0.0000000), wk =   0.3333333
        k(    8) = (   0.0000000   0.0000000   0.0000000), wk =   0.0000000

     Dense  grid:    49989 G-vectors     FFT dimensions: (  30,  60,  60)

     Dynamical RAM for                 wfc:       0.76 MB

     Dynamical RAM for     wfc (w. buffer):       0.76 MB

     Dynamical RAM for           str. fact:       0.76 MB

     Dynamical RAM for           local pot:       0.02 MB

     Dynamical RAM for          nlocal pot:       0.95 MB

     Dynamical RAM for                qrad:       0.25 MB

     Dynamical RAM for          rho,v,vnew:       4.76 MB

     Dynamical RAM for           G-vectors:       3.24 MB

     Dynamical RAM for          h,s,v(r/c):       0.05 MB

     Dynamical RAM for          <psi|beta>:       0.00 MB

     Dynamical RAM for                 psi:       3.06 MB

     Dynamical RAM for                hpsi:       3.06 MB

     Dynamical RAM for      wfcinit/wfcrot:       1.53 MB

     Estimated static dynamical RAM per process >      16.41 MB

     Estimated max dynamical RAM per process >      22.56 MB

     The potential is recalculated from file :
     ./_ph0/hchain.save/charge-density

     Starting wfcs are    2 atomic +    6 random wfcs

     Band Structure Calculation
     Davidson diagonalization with overlap

     Computing kpt #:     1
     total cpu time spent up to now is       12.1 secs

     Computing kpt #:     2
     total cpu time spent up to now is       12.6 secs

     Computing kpt #:     3
     total cpu time spent up to now is       12.9 secs

     Computing kpt #:     4
     total cpu time spent up to now is       13.4 secs

     Computing kpt #:     5
     total cpu time spent up to now is       13.8 secs

     Computing kpt #:     6
     total cpu time spent up to now is       14.2 secs

     Computing kpt #:     7
     total cpu time spent up to now is       14.7 secs

     Computing kpt #:     8
     total cpu time spent up to now is       15.0 secs

     ethr =  5.00E-10,  avg # of iterations = 21.0

     total cpu time spent up to now is       15.0 secs

     End of band structure calculation

          k = 0.0000 0.0000 0.0000 (  6263 PWs)   bands (ev):

   -10.9360   0.0142   2.5304   2.5304   3.8964   7.1670   8.4171   8.4171

     occupation numbers 
     1.0000   0.0000   0.0000   0.0000   0.0000   0.0000   0.0000   0.0000

          k = 0.5000 0.0000 0.0000 (  6246 PWs)   bands (ev):

    -9.2371  -0.1217   4.8169   6.1250   7.0093   7.0093   8.0699   8.0699

     occupation numbers 
     0.0000   0.0000   0.0000   0.0000   0.0000   0.0000   0.0000   0.0000

          k = 0.1667 0.0000 0.0000 (  6279 PWs)   bands (ev):

   -10.5933   0.4576   3.0821   3.0821   4.4526   5.6494   8.3714   8.9670

     occupation numbers 
     1.0000   0.0000   0.0000   0.0000   0.0000   0.0000   0.0000   0.0000

          k = 0.6667 0.0000 0.0000 (  6247 PWs)   bands (ev):

    -9.7653   0.8350   3.3066   4.7281   4.7281   6.1204   9.0377  10.1682

     occupation numbers 
     0.0000   0.0000   0.0000   0.0000   0.0000   0.0000   0.0000   0.0000

          k = 0.3333 0.0000 0.0000 (  6247 PWs)   bands (ev):

    -9.7653   0.8350   3.3066   4.7281   4.7281   6.1204   9.0377  10.1682

     occupation numbers 
     1.0000   0.0000   0.0000   0.0000   0.0000   0.0000   0.0000   0.0000

          k = 0.8333 0.0000 0.0000 (  6279 PWs)   bands (ev):

   -10.5933   0.4576   3.0821   3.0821   4.4526   5.6494   8.3714   8.9670

     occupation numbers 
     0.0000   0.0000   0.0000   0.0000   0.0000   0.0000   0.0000   0.0000

          k =-0.5000 0.0000 0.0000 (  6246 PWs)   bands (ev):

    -9.2371  -0.1217   4.8169   6.1250   7.0093   7.0093   8.0699   8.0699

     occupation numbers 
     1.0000   0.0000   0.0000   0.0000   0.0000   0.0000   0.0000   0.0000

          k = 0.0000 0.0000 0.0000 (  6263 PWs)   bands (ev):

   -10.9360   0.0142   2.5304   2.5304   3.8964   7.1670   8.4171   8.4171

     occupation numbers 
     0.0000   0.0000   0.0000   0.0000   0.0000   0.0000   0.0000   0.0000

     highest occupied, lowest unoccupied level (ev):    -9.2371   -0.1217

     Writing config to output data dir ./_ph0/hchain.save/

     hchain_dvscf                                                               

     bravais-lattice index     =            8
     lattice parameter (alat)  =       5.1779  a.u.
     unit-cell volume          =     517.7850 (a.u.)^3
     number of atoms/cell      =            2
     number of atomic types    =            1
     kinetic-energy cut-off    =      80.0000  Ry
     charge density cut-off    =     320.0000  Ry
     convergence threshold     =      1.0E-12
     beta                      =       0.7000
     number of iterations used =            4
     Exchange-correlation= PBE
                           (   1   4   3   4   0   0   0)


     celldm(1)=    5.17785  celldm(2)=    1.93130  celldm(3)=    1.93130
     celldm(4)=    0.00000  celldm(5)=    0.00000  celldm(6)=    0.00000

     crystal axes: (cart. coord. in units of alat)
               a(1) = (  1.0000  0.0000  0.0000 )  
               a(2) = (  0.0000  1.9313  0.0000 )  
               a(3) = (  0.0000  0.0000  1.9313 )  

     reciprocal axes: (cart. coord. in units 2 pi/alat)
               b(1) = (  1.0000  0.0000  0.0000 )  
               b(2) = (  0.0000  0.5178  0.0000 )  
               b(3) = (  0.0000  0.0000  0.5178 )  


     Atoms inside the unit cell: 

     Cartesian axes

     site n.  atom      mass           positions (alat units)
        1     H    1.0079   tau(    1) = (    0.00000    0.00000    0.00000  )
        2     H    1.0079   tau(    2) = (    0.27007    0.00000    0.00000  )

     Computing dynamical matrix for 
                    q = (   0.5000000   0.0000000   0.0000000 )

      9 Sym.Ops. (with q -> -q+G )

                                    s                        frac. trans.

      isym =  1     identity                                     

 cryst.   s( 1) = (     1          0          0      )
                  (     0          1          0      )
                  (     0          0          1      )

 cart.    s( 1) = (  1.0000000  0.0000000  0.0000000 )
                  (  0.0000000  1.0000000  0.0000000 )
                  (  0.0000000  0.0000000  1.0000000 )


      isym =  2     180 deg rotation - cart. axis [1,0,0]        

 cryst.   s( 2) = (     1          0          0      )
                  (     0         -1          0      )
                  (     0          0         -1      )

 cart.    s( 2) = (  1.0000000  0.0000000  0.0000000 )
                  (  0.0000000 -1.0000000  0.0000000 )
                  (  0.0000000  0.0000000 -1.0000000 )


      isym =  3      90 deg rotation - cart. axis [-1,0,0]       

 cryst.   s( 3) = (     1          0          0      )
                  (     0          0         -1      )
                  (     0          1          0      )

 cart.    s( 3) = (  1.0000000  0.0000000  0.0000000 )
                  (  0.0000000  0.0000000  1.0000000 )
                  (  0.0000000 -1.0000000  0.0000000 )


      isym =  4      90 deg rotation - cart. axis [1,0,0]        

 cryst.   s( 4) = (     1          0          0      )
                  (     0          0          1      )
                  (     0         -1          0      )

 cart.    s( 4) = (  1.0000000  0.0000000  0.0000000 )
                  (  0.0000000  0.0000000 -1.0000000 )
                  (  0.0000000  1.0000000  0.0000000 )


      isym =  5     inv. 180 deg rotation - cart. axis [0,0,1]   

 cryst.   s( 5) = (     1          0          0      )
                  (     0          1          0      )
                  (     0          0         -1      )

 cart.    s( 5) = (  1.0000000  0.0000000  0.0000000 )
                  (  0.0000000  1.0000000  0.0000000 )
                  (  0.0000000  0.0000000 -1.0000000 )


      isym =  6     inv. 180 deg rotation - cart. axis [0,1,0]   

 cryst.   s( 6) = (     1          0          0      )
                  (     0         -1          0      )
                  (     0          0          1      )

 cart.    s( 6) = (  1.0000000  0.0000000  0.0000000 )
                  (  0.0000000 -1.0000000  0.0000000 )
                  (  0.0000000  0.0000000  1.0000000 )


      isym =  7     inv. 180 deg rotation - cart. axis [0,1,1]   

 cryst.   s( 7) = (     1          0          0      )
                  (     0          0         -1      )
                  (     0         -1          0      )

 cart.    s( 7) = (  1.0000000  0.0000000  0.0000000 )
                  (  0.0000000  0.0000000 -1.0000000 )
                  (  0.0000000 -1.0000000  0.0000000 )


      isym =  8     inv. 180 deg rotation - cart. axis [0,1,-1]  

 cryst.   s( 8) = (     1          0          0      )
                  (     0          0          1      )
                  (     0          1          0      )

 cart.    s( 8) = (  1.0000000  0.0000000  0.0000000 )
                  (  0.0000000  0.0000000  1.0000000 )
                  (  0.0000000  1.0000000  0.0000000 )


     This transformation sends q -> -q+G

      isym =  9     identity                                     

 cryst.   s( 9) = (     1          0          0      )
                  (     0          1          0      )
                  (     0          0          1      )

 cart.    s( 9) = (  1.0000000  0.0000000  0.0000000 )
                  (  0.0000000  1.0000000  0.0000000 )
                  (  0.0000000  0.0000000  1.0000000 )


     G cutoff =  217.3147  (  49989 G-vectors)     FFT grid: ( 30, 60, 60)
     number of k points=     8
                       cart. coord. in units 2pi/alat
        k(    1) = (   0.0000000   0.0000000   0.0000000), wk =   0.3333333
        k(    2) = (   0.5000000   0.0000000   0.0000000), wk =   0.0000000
        k(    3) = (   0.1666667   0.0000000   0.0000000), wk =   0.6666667
        k(    4) = (   0.6666667   0.0000000   0.0000000), wk =   0.0000000
        k(    5) = (   0.3333333   0.0000000   0.0000000), wk =   0.6666667
        k(    6) = (   0.8333333   0.0000000   0.0000000), wk =   0.0000000
        k(    7) = (  -0.5000000   0.0000000   0.0000000), wk =   0.3333333
        k(    8) = (   0.0000000   0.0000000   0.0000000), wk =   0.0000000

                       cryst. coord.
        k(    1) = (   0.0000000   0.0000000   0.0000000), wk =   0.3333333
        k(    2) = (   0.5000000   0.0000000   0.0000000), wk =   0.0000000
        k(    3) = (   0.1666667   0.0000000   0.0000000), wk =   0.6666667
        k(    4) = (   0.6666667   0.0000000   0.0000000), wk =   0.0000000
        k(    5) = (   0.3333333   0.0000000   0.0000000), wk =   0.6666667
        k(    6) = (   0.8333333   0.0000000   0.0000000), wk =   0.0000000
        k(    7) = (  -0.5000000   0.0000000   0.0000000), wk =   0.3333333
        k(    8) = (   0.0000000   0.0000000   0.0000000), wk =   0.0000000

     PseudoPot. # 1 for H  read from file:
     ./pseudo/H_ONCV_PBE.upf
     MD5 check sum: e96aa7e3e4a958db16958554ea960e2a
     Pseudo is Norm-conserving, Zval =  1.0
     Generated using ONCVPSP code by D. R. Hamann
     Using radial grid of 1166 points,  3 beta functions with: 
                l(1) =   0
                l(2) =   0
                l(3) =   1

     point group C_4v (4mm) 
     there are  5 classes
     the character table:

       E     2C4   C2    2s_v  2s_d 
A_1    1.00  1.00  1.00  1.00  1.00
A_2    1.00  1.00  1.00 -1.00 -1.00
B_1    1.00 -1.00  1.00  1.00 -1.00
B_2    1.00 -1.00  1.00 -1.00  1.00
E      2.00  0.00 -2.00  0.00  0.00

     the symmetry operations in each class and the name of the first element:

     E        1
          identity                                               
     2C4      3    4
           90 deg rotation - cart. axis [-1,0,0]                 
     C2       2
          180 deg rotation - cart. axis [1,0,0]                  
     2s_v     5    6
          inv. 180 deg rotation - cart. axis [0,0,1]             
     2s_d     7    8
          inv. 180 deg rotation - cart. axis [0,1,1]             


     Atomic displacements:
     There are    4 irreducible representations

     Representation     1      1 modes -  To be done
     Irreps are as follows:

                     mode #   1
                     (  -0.00000  -0.00000   ) 
                     (  -0.00000  -0.00000   ) 
                     (  -0.00000  -0.00000   ) 
                     (  -1.00000  -0.00000   ) 
                     (  -0.00000  -0.00000   ) 
                     (  -0.00000  -0.00000   ) 

     Representation     2      1 modes -  To be done
     Irreps are as follows:

                     mode #   2
                     (  -1.00000  -0.00000   ) 
                     (  -0.00000  -0.00000   ) 
                     (  -0.00000  -0.00000   ) 
                     (  -0.00000  -0.00000   ) 
                     (  -0.00000  -0.00000   ) 
                     (  -0.00000  -0.00000   ) 

     Representation     3      2 modes -  To be done
     Irreps are as follows:

           mode #   3                           mode #   4
           (  -0.00000  -0.00000   )            (  -0.00000  -0.00000   ) 
           (  -1.00000  -0.00000   )            (  -0.00000  -0.00000   ) 
           (  -0.00000  -0.00000   )            (  -1.00000  -0.00000   ) 
           (  -0.00000  -0.00000   )            (  -0.00000  -0.00000   ) 
           (  -0.00000  -0.00000   )            (  -0.00000  -0.00000   ) 
           (  -0.00000  -0.00000   )            (  -0.00000  -0.00000   ) 

     Representation     4      2 modes -  To be done
     Irreps are as follows:

           mode #   5                           mode #   6
           (  -0.00000  -0.00000   )            (  -0.00000  -0.00000   ) 
           (  -0.00000  -0.00000   )            (  -0.00000  -0.00000   ) 
           (  -0.00000  -0.00000   )            (  -0.00000  -0.00000   ) 
           (  -0.00000  -0.00000   )            (  -0.00000  -0.00000   ) 
           (  -1.00000  -0.00000   )            (  -0.00000  -0.00000   ) 
           (  -0.00000  -0.00000   )            (  -1.00000  -0.00000   ) 


     PHONON       :     21.52s CPU     21.72s WALL

     Reading dVscf from file hchain-dvscf4_
     Reading dynamics matrix from file hchain.dyn4

     Diagonalizing the dynamical matrix

     q = (    0.500000000   0.000000000   0.000000000 ) 

 **************************************************************************
     freq (    1) =     -15.179950 [THz] =    -506.348643 [cm-1]
     freq (    2) =     -15.179950 [THz] =    -506.348643 [cm-1]
     freq (    3) =      -3.945324 [THz] =    -131.601832 [cm-1]
     freq (    4) =      -3.945324 [THz] =    -131.601832 [cm-1]
     freq (    5) =      13.304452 [THz] =     443.788750 [cm-1]
     freq (    6) =     132.935341 [THz] =    4434.245682 [cm-1]
 **************************************************************************
     electron-phonon interaction (to be used in YAMBO)  ...


     PHONON       :     22.72s CPU     22.95s WALL

     INITIALIZATION: 
     phq_setup    :      0.35s CPU      0.41s WALL (       4 calls)
     phq_init     :      1.22s CPU      1.22s WALL (       4 calls)

     phq_init     :      1.22s CPU      1.22s WALL (       4 calls)
     init_vloc    :      0.08s CPU      0.08s WALL (       5 calls)
     init_us_1    :      0.01s CPU      0.02s WALL (       5 calls)
     init_us_2    :      0.13s CPU      0.15s WALL (     136 calls)




     dvqpsi_us    :      3.08s CPU      3.12s WALL (     120 calls)
                                        0.00s GPU  (     120 calls)
     apply_dpot_b :      2.83s CPU      2.84s WALL (     120 calls)
     vpsifft      :      2.85s CPU      2.85s WALL (     120 calls)

     dvqpsi_us    :      3.08s CPU      3.12s WALL (     120 calls)
                                        0.00s GPU  (     120 calls)
     dvqpsi_us_on :      0.08s CPU      0.08s WALL (     120 calls)


     h_psi        :     12.81s CPU     12.84s WALL (     820 calls)

     h_psi        :     12.81s CPU     12.84s WALL (     820 calls)
     add_vuspsi   :      0.14s CPU      0.14s WALL (     820 calls)



      Electron-phonon coupling
     elphon       :      6.10s CPU      6.18s WALL (       4 calls)
     elphel       :      6.08s CPU      6.13s WALL (      16 calls)

      General routines
     calbec       :      0.16s CPU      0.16s WALL (     900 calls)
     fft          :      0.09s CPU      0.09s WALL (      62 calls)
     ffts         :      0.16s CPU      0.16s WALL (     120 calls)
     fftw         :     13.84s CPU     13.89s WALL (   12584 calls)
     davcio       :      0.04s CPU      0.05s WALL (     244 calls)

      Additional routines
     h_psi_bgrp   :     12.81s CPU     12.84s WALL (     820 calls)
     h_psi        :     12.81s CPU     12.84s WALL (     820 calls)
     h_psi:pot    :     12.66s CPU     12.70s WALL (     820 calls)
     h_psi:calbec :      0.15s CPU      0.15s WALL (     820 calls)


     PHONON       :     22.72s CPU     22.95s WALL


   This run was terminated on:  23:24:19  20Dec2022            

=------------------------------------------------------------------------------=
   JOB DONE.
=------------------------------------------------------------------------------=
