
     Program PHONON v.7.1 starts on 21Dec2022 at 17:57:21 

     This program is part of the open-source Quantum ESPRESSO suite
     for quantum simulation of materials; please cite
         "P. Giannozzi et al., J. Phys.:Condens. Matter 21 395502 (2009);
         "P. Giannozzi et al., J. Phys.:Condens. Matter 29 465901 (2017);
         "P. Giannozzi et al., J. Chem. Phys. 152 154105 (2020);
          URL http://www.quantum-espresso.org", 
     in publications or presentations arising from this work. More details at
     http://www.quantum-espresso.org/quote

     Parallel version (MPI), running on     1 processors

     MPI processes distributed on     1 nodes
     3001 MiB available memory on the printing compute node when the environment starts

     Waiting for input...
     Reading input from standard input


     Dynamical matrices for q-points given in input
     (   4q-points):
       N         xq(1)         xq(2)         xq(3) 
       1   0.000000000   0.000000000   0.000000000
       2  -0.166666700   0.000000000   0.000000000
       3  -0.333333300   0.000000000   0.000000000
       4   0.500000000   0.000000000   0.000000000

     Reading xml data from directory:

     ./hchain.save/

     Subspace diagonalization in iterative solution of the eigenvalue problem:
     a serial algorithm will be used


     IMPORTANT: XC functional enforced from input :
     Exchange-correlation= PBE
                           (   1   4   3   4   0   0   0)
     Any further DFT definition will be discarded
     Please, verify this is what you really want


     G-vector sticks info
     --------------------
     sticks:   dense  smooth     PW     G-vecs:    dense   smooth      PW
     Sum         661     661    197                17717    17717    2923

     Using Slab Decomposition

     Reading collected, re-writing distributed wavefunctions in ./

     Saving dvscf to file. Distribute only q points, not irreducible represetations.

     Calculation of q =    0.0000000   0.0000000   0.0000000

     G-vector sticks info
     --------------------
     sticks:   dense  smooth     PW     G-vecs:    dense   smooth      PW
     Sum         661     661    197                17717    17717    2923

     Using Slab Decomposition


     Title: 
     hchain_dvscf                                                               


     bravais-lattice index     =            8
     lattice parameter (alat)  =       5.1779  a.u.
     unit-cell volume          =     517.7850 (a.u.)^3
     number of atoms/cell      =            2
     number of atomic types    =            1
     number of electrons       =         2.00
     number of Kohn-Sham states=           10
     kinetic-energy cutoff     =      40.0000  Ry
     charge density cutoff     =     160.0000  Ry
     Exchange-correlation= PBE
                           (   1   4   3   4   0   0   0)

     celldm(1)=   5.177850  celldm(2)=   1.931304  celldm(3)=   1.931304
     celldm(4)=   0.000000  celldm(5)=   0.000000  celldm(6)=   0.000000

     crystal axes: (cart. coord. in units of alat)
               a(1) = (   1.000000   0.000000   0.000000 )  
               a(2) = (   0.000000   1.931304   0.000000 )  
               a(3) = (   0.000000   0.000000   1.931304 )  

     reciprocal axes: (cart. coord. in units 2 pi/alat)
               b(1) = (  1.000000  0.000000  0.000000 )  
               b(2) = (  0.000000  0.517785  0.000000 )  
               b(3) = (  0.000000  0.000000  0.517785 )  


     PseudoPot. # 1 for H  read from file:
     ./pseudo/H_ONCV_PBE.upf
     MD5 check sum: e96aa7e3e4a958db16958554ea960e2a
     Pseudo is Norm-conserving, Zval =  1.0
     Generated using ONCVPSP code by D. R. Hamann
     Using radial grid of 1166 points,  3 beta functions with: 
                l(1) =   0
                l(2) =   0
                l(3) =   1

     atomic species   valence    mass     pseudopotential
        H              1.00     1.00794     H ( 1.00)

      8 Sym. Ops. (no inversion) found


                                    s                        frac. trans.

      isym =  1     identity                                     

 cryst.   s( 1) = (     1          0          0      )
                  (     0          1          0      )
                  (     0          0          1      )

 cart.    s( 1) = (  1.0000000  0.0000000  0.0000000 )
                  (  0.0000000  1.0000000  0.0000000 )
                  (  0.0000000  0.0000000  1.0000000 )


      isym =  2     180 deg rotation - cart. axis [1,0,0]        

 cryst.   s( 2) = (     1          0          0      )
                  (     0         -1          0      )
                  (     0          0         -1      )

 cart.    s( 2) = (  1.0000000  0.0000000  0.0000000 )
                  (  0.0000000 -1.0000000  0.0000000 )
                  (  0.0000000  0.0000000 -1.0000000 )


      isym =  3      90 deg rotation - cart. axis [-1,0,0]       

 cryst.   s( 3) = (     1          0          0      )
                  (     0          0         -1      )
                  (     0          1          0      )

 cart.    s( 3) = (  1.0000000  0.0000000  0.0000000 )
                  (  0.0000000  0.0000000  1.0000000 )
                  (  0.0000000 -1.0000000  0.0000000 )


      isym =  4      90 deg rotation - cart. axis [1,0,0]        

 cryst.   s( 4) = (     1          0          0      )
                  (     0          0          1      )
                  (     0         -1          0      )

 cart.    s( 4) = (  1.0000000  0.0000000  0.0000000 )
                  (  0.0000000  0.0000000 -1.0000000 )
                  (  0.0000000  1.0000000  0.0000000 )


      isym =  5     inv. 180 deg rotation - cart. axis [0,0,1]   

 cryst.   s( 5) = (     1          0          0      )
                  (     0          1          0      )
                  (     0          0         -1      )

 cart.    s( 5) = (  1.0000000  0.0000000  0.0000000 )
                  (  0.0000000  1.0000000  0.0000000 )
                  (  0.0000000  0.0000000 -1.0000000 )


      isym =  6     inv. 180 deg rotation - cart. axis [0,1,0]   

 cryst.   s( 6) = (     1          0          0      )
                  (     0         -1          0      )
                  (     0          0          1      )

 cart.    s( 6) = (  1.0000000  0.0000000  0.0000000 )
                  (  0.0000000 -1.0000000  0.0000000 )
                  (  0.0000000  0.0000000  1.0000000 )


      isym =  7     inv. 180 deg rotation - cart. axis [0,1,1]   

 cryst.   s( 7) = (     1          0          0      )
                  (     0          0         -1      )
                  (     0         -1          0      )

 cart.    s( 7) = (  1.0000000  0.0000000  0.0000000 )
                  (  0.0000000  0.0000000 -1.0000000 )
                  (  0.0000000 -1.0000000  0.0000000 )


      isym =  8     inv. 180 deg rotation - cart. axis [0,1,-1]  

 cryst.   s( 8) = (     1          0          0      )
                  (     0          0          1      )
                  (     0          1          0      )

 cart.    s( 8) = (  1.0000000  0.0000000  0.0000000 )
                  (  0.0000000  0.0000000  1.0000000 )
                  (  0.0000000  1.0000000  0.0000000 )


     point group C_4v (4mm) 
     there are  5 classes
     the character table:

       E     2C4   C2    2s_v  2s_d 
A_1    1.00  1.00  1.00  1.00  1.00
A_2    1.00  1.00  1.00 -1.00 -1.00
B_1    1.00 -1.00  1.00  1.00 -1.00
B_2    1.00 -1.00  1.00 -1.00  1.00
E      2.00  0.00 -2.00  0.00  0.00

     the symmetry operations in each class and the name of the first element:

     E        1
          identity                                               
     2C4      3    4
           90 deg rotation - cart. axis [-1,0,0]                 
     C2       2
          180 deg rotation - cart. axis [1,0,0]                  
     2s_v     5    6
          inv. 180 deg rotation - cart. axis [0,0,1]             
     2s_d     7    8
          inv. 180 deg rotation - cart. axis [0,1,1]             

   Cartesian axes

     site n.     atom                  positions (alat units)
         1           H   tau(   1) = (   0.0000000   0.0000000   0.0000000  )
         2           H   tau(   2) = (   0.2700730   0.0000000   0.0000000  )

   Crystallographic axes

     site n.     atom                  positions (cryst. coord.)
         1           H   tau(   1) = (  0.0000000  0.0000000  0.0000000  )
         2           H   tau(   2) = (  0.2700730  0.0000000  0.0000000  )

     number of k points=     4
                       cart. coord. in units 2pi/alat
        k(    1) = (   0.0000000   0.0000000   0.0000000), wk =   0.3333333
        k(    2) = (   0.1666667   0.0000000   0.0000000), wk =   0.6666667
        k(    3) = (   0.3333333   0.0000000   0.0000000), wk =   0.6666667
        k(    4) = (  -0.5000000   0.0000000   0.0000000), wk =   0.3333333

                       cryst. coord.
        k(    1) = (   0.0000000   0.0000000   0.0000000), wk =   0.3333333
        k(    2) = (   0.1666667   0.0000000   0.0000000), wk =   0.6666667
        k(    3) = (   0.3333333   0.0000000   0.0000000), wk =   0.6666667
        k(    4) = (  -0.5000000   0.0000000   0.0000000), wk =   0.3333333

     Dense  grid:    17717 G-vectors     FFT dimensions: (  24,  45,  45)

     Dynamical RAM for                 wfc:       0.34 MB

     Dynamical RAM for     wfc (w. buffer):       0.34 MB

     Dynamical RAM for           str. fact:       0.27 MB

     Dynamical RAM for           local pot:       0.01 MB

     Dynamical RAM for          nlocal pot:       0.34 MB

     Dynamical RAM for                qrad:       0.17 MB

     Dynamical RAM for          rho,v,vnew:       1.92 MB

     Dynamical RAM for           G-vectors:       1.15 MB

     Dynamical RAM for          h,s,v(r/c):       0.07 MB

     Dynamical RAM for          <psi|beta>:       0.00 MB

     Dynamical RAM for                 psi:       1.35 MB

     Dynamical RAM for                hpsi:       1.35 MB

     Dynamical RAM for      wfcinit/wfcrot:       0.68 MB

     Estimated static dynamical RAM per process >       6.60 MB

     Estimated max dynamical RAM per process >       9.37 MB

     The potential is recalculated from file :
     ./_ph0/hchain.save/charge-density

     Starting wfcs are    2 atomic +    8 random wfcs

     Band Structure Calculation
     Davidson diagonalization with overlap

     Computing kpt #:     1
     total cpu time spent up to now is        0.2 secs

     Computing kpt #:     2
     total cpu time spent up to now is        0.3 secs

     Computing kpt #:     3
     total cpu time spent up to now is        0.5 secs

     Computing kpt #:     4
     total cpu time spent up to now is        0.7 secs

     ethr =  5.00E-10,  avg # of iterations = 14.0

     total cpu time spent up to now is        0.7 secs

     End of band structure calculation

          k = 0.0000 0.0000 0.0000 (  2231 PWs)   bands (ev):

   -10.9272   0.0148   2.5265   2.5265   3.8947   7.1665   8.4135   8.4135
     8.6092   9.9730

     occupation numbers 
     1.0000   0.0000   0.0000   0.0000   0.0000   0.0000   0.0000   0.0000
     0.0000   0.0000

          k = 0.1667 0.0000 0.0000 (  2183 PWs)   bands (ev):

   -10.5818   0.4587   3.0783   3.0783   4.4509   5.6563   8.3715   8.9634
     8.9634   9.1650

     occupation numbers 
     1.0000   0.0000   0.0000   0.0000   0.0000   0.0000   0.0000   0.0000
     0.0000   0.0000

          k = 0.3333 0.0000 0.0000 (  2214 PWs)   bands (ev):

    -9.7521   0.8369   3.3067   4.7242   4.7242   6.1187   9.0380  10.1667
    10.5233  10.5233

     occupation numbers 
     1.0000   0.0000   0.0000   0.0000   0.0000   0.0000   0.0000   0.0000
     0.0000   0.0000

          k =-0.5000 0.0000 0.0000 (  2218 PWs)   bands (ev):

    -9.2231  -0.1223   4.8178   6.1243   7.0046   7.0046   8.0670   8.0670
     8.7492   9.0600

     occupation numbers 
     1.0000   0.0000   0.0000   0.0000   0.0000   0.0000   0.0000   0.0000
     0.0000   0.0000

     highest occupied, lowest unoccupied level (ev):    -9.2231   -0.1223

     Writing config to output data dir ./_ph0/hchain.save/

     hchain_dvscf                                                               

     bravais-lattice index     =            8
     lattice parameter (alat)  =       5.1779  a.u.
     unit-cell volume          =     517.7850 (a.u.)^3
     number of atoms/cell      =            2
     number of atomic types    =            1
     kinetic-energy cut-off    =      40.0000  Ry
     charge density cut-off    =     160.0000  Ry
     convergence threshold     =      1.0E-12
     beta                      =       0.7000
     number of iterations used =            4
     Exchange-correlation= PBE
                           (   1   4   3   4   0   0   0)


     celldm(1)=    5.17785  celldm(2)=    1.93130  celldm(3)=    1.93130
     celldm(4)=    0.00000  celldm(5)=    0.00000  celldm(6)=    0.00000

     crystal axes: (cart. coord. in units of alat)
               a(1) = (  1.0000  0.0000  0.0000 )  
               a(2) = (  0.0000  1.9313  0.0000 )  
               a(3) = (  0.0000  0.0000  1.9313 )  

     reciprocal axes: (cart. coord. in units 2 pi/alat)
               b(1) = (  1.0000  0.0000  0.0000 )  
               b(2) = (  0.0000  0.5178  0.0000 )  
               b(3) = (  0.0000  0.0000  0.5178 )  


     Atoms inside the unit cell: 

     Cartesian axes

     site n.  atom      mass           positions (alat units)
        1     H    1.0079   tau(    1) = (    0.00000    0.00000    0.00000  )
        2     H    1.0079   tau(    2) = (    0.27007    0.00000    0.00000  )

     Computing dynamical matrix for 
                    q = (   0.0000000   0.0000000   0.0000000 )

      9 Sym.Ops. (with q -> -q+G )

                                    s                        frac. trans.

      isym =  1     identity                                     

 cryst.   s( 1) = (     1          0          0      )
                  (     0          1          0      )
                  (     0          0          1      )

 cart.    s( 1) = (  1.0000000  0.0000000  0.0000000 )
                  (  0.0000000  1.0000000  0.0000000 )
                  (  0.0000000  0.0000000  1.0000000 )


      isym =  2     180 deg rotation - cart. axis [1,0,0]        

 cryst.   s( 2) = (     1          0          0      )
                  (     0         -1          0      )
                  (     0          0         -1      )

 cart.    s( 2) = (  1.0000000  0.0000000  0.0000000 )
                  (  0.0000000 -1.0000000  0.0000000 )
                  (  0.0000000  0.0000000 -1.0000000 )


      isym =  3      90 deg rotation - cart. axis [-1,0,0]       

 cryst.   s( 3) = (     1          0          0      )
                  (     0          0         -1      )
                  (     0          1          0      )

 cart.    s( 3) = (  1.0000000  0.0000000  0.0000000 )
                  (  0.0000000  0.0000000  1.0000000 )
                  (  0.0000000 -1.0000000  0.0000000 )


      isym =  4      90 deg rotation - cart. axis [1,0,0]        

 cryst.   s( 4) = (     1          0          0      )
                  (     0          0          1      )
                  (     0         -1          0      )

 cart.    s( 4) = (  1.0000000  0.0000000  0.0000000 )
                  (  0.0000000  0.0000000 -1.0000000 )
                  (  0.0000000  1.0000000  0.0000000 )


      isym =  5     inv. 180 deg rotation - cart. axis [0,0,1]   

 cryst.   s( 5) = (     1          0          0      )
                  (     0          1          0      )
                  (     0          0         -1      )

 cart.    s( 5) = (  1.0000000  0.0000000  0.0000000 )
                  (  0.0000000  1.0000000  0.0000000 )
                  (  0.0000000  0.0000000 -1.0000000 )


      isym =  6     inv. 180 deg rotation - cart. axis [0,1,0]   

 cryst.   s( 6) = (     1          0          0      )
                  (     0         -1          0      )
                  (     0          0          1      )

 cart.    s( 6) = (  1.0000000  0.0000000  0.0000000 )
                  (  0.0000000 -1.0000000  0.0000000 )
                  (  0.0000000  0.0000000  1.0000000 )


      isym =  7     inv. 180 deg rotation - cart. axis [0,1,1]   

 cryst.   s( 7) = (     1          0          0      )
                  (     0          0         -1      )
                  (     0         -1          0      )

 cart.    s( 7) = (  1.0000000  0.0000000  0.0000000 )
                  (  0.0000000  0.0000000 -1.0000000 )
                  (  0.0000000 -1.0000000  0.0000000 )


      isym =  8     inv. 180 deg rotation - cart. axis [0,1,-1]  

 cryst.   s( 8) = (     1          0          0      )
                  (     0          0          1      )
                  (     0          1          0      )

 cart.    s( 8) = (  1.0000000  0.0000000  0.0000000 )
                  (  0.0000000  0.0000000  1.0000000 )
                  (  0.0000000  1.0000000  0.0000000 )


     This transformation sends q -> -q+G

      isym =  9     identity                                     

 cryst.   s( 9) = (     1          0          0      )
                  (     0          1          0      )
                  (     0          0          1      )

 cart.    s( 9) = (  1.0000000  0.0000000  0.0000000 )
                  (  0.0000000  1.0000000  0.0000000 )
                  (  0.0000000  0.0000000  1.0000000 )


     G cutoff =  108.6574  (  17717 G-vectors)     FFT grid: ( 24, 45, 45)
     number of k points=     4
                       cart. coord. in units 2pi/alat
        k(    1) = (   0.0000000   0.0000000   0.0000000), wk =   0.3333333
        k(    2) = (   0.1666667   0.0000000   0.0000000), wk =   0.6666667
        k(    3) = (   0.3333333   0.0000000   0.0000000), wk =   0.6666667
        k(    4) = (  -0.5000000   0.0000000   0.0000000), wk =   0.3333333

                       cryst. coord.
        k(    1) = (   0.0000000   0.0000000   0.0000000), wk =   0.3333333
        k(    2) = (   0.1666667   0.0000000   0.0000000), wk =   0.6666667
        k(    3) = (   0.3333333   0.0000000   0.0000000), wk =   0.6666667
        k(    4) = (  -0.5000000   0.0000000   0.0000000), wk =   0.3333333

     PseudoPot. # 1 for H  read from file:
     ./pseudo/H_ONCV_PBE.upf
     MD5 check sum: e96aa7e3e4a958db16958554ea960e2a
     Pseudo is Norm-conserving, Zval =  1.0
     Generated using ONCVPSP code by D. R. Hamann
     Using radial grid of 1166 points,  3 beta functions with: 
                l(1) =   0
                l(2) =   0
                l(3) =   1

     point group C_4v (4mm) 
     there are  5 classes
     the character table:

       E     2C4   C2    2s_v  2s_d 
A_1    1.00  1.00  1.00  1.00  1.00
A_2    1.00  1.00  1.00 -1.00 -1.00
B_1    1.00 -1.00  1.00  1.00 -1.00
B_2    1.00 -1.00  1.00 -1.00  1.00
E      2.00  0.00 -2.00  0.00  0.00

     the symmetry operations in each class and the name of the first element:

     E        1
          identity                                               
     2C4      3    4
           90 deg rotation - cart. axis [-1,0,0]                 
     C2       2
          180 deg rotation - cart. axis [1,0,0]                  
     2s_v     5    6
          inv. 180 deg rotation - cart. axis [0,0,1]             
     2s_d     7    8
          inv. 180 deg rotation - cart. axis [0,1,1]             


     Atomic displacements:
     There are    4 irreducible representations

     Representation     1      1 modes -  To be done
     Irreps are as follows:

                     mode #   1
                     (  -0.00000  -0.00000   ) 
                     (  -0.00000  -0.00000   ) 
                     (  -0.00000  -0.00000   ) 
                     (  -1.00000  -0.00000   ) 
                     (  -0.00000  -0.00000   ) 
                     (  -0.00000  -0.00000   ) 

     Representation     2      1 modes -  To be done
     Irreps are as follows:

                     mode #   2
                     (  -1.00000  -0.00000   ) 
                     (  -0.00000  -0.00000   ) 
                     (  -0.00000  -0.00000   ) 
                     (  -0.00000  -0.00000   ) 
                     (  -0.00000  -0.00000   ) 
                     (  -0.00000  -0.00000   ) 

     Representation     3      2 modes -  To be done
     Irreps are as follows:

           mode #   3                           mode #   4
           (  -0.00000  -0.00000   )            (  -0.00000  -0.00000   ) 
           (  -1.00000  -0.00000   )            (  -0.00000  -0.00000   ) 
           (  -0.00000  -0.00000   )            (  -1.00000  -0.00000   ) 
           (  -0.00000  -0.00000   )            (  -0.00000  -0.00000   ) 
           (  -0.00000  -0.00000   )            (  -0.00000  -0.00000   ) 
           (  -0.00000  -0.00000   )            (  -0.00000  -0.00000   ) 

     Representation     4      2 modes -  To be done
     Irreps are as follows:

           mode #   5                           mode #   6
           (  -0.00000  -0.00000   )            (  -0.00000  -0.00000   ) 
           (  -0.00000  -0.00000   )            (  -0.00000  -0.00000   ) 
           (  -0.00000  -0.00000   )            (  -0.00000  -0.00000   ) 
           (  -0.00000  -0.00000   )            (  -0.00000  -0.00000   ) 
           (  -1.00000  -0.00000   )            (  -0.00000  -0.00000   ) 
           (  -0.00000  -0.00000   )            (  -1.00000  -0.00000   ) 


     PHONON       :      0.89s CPU      0.91s WALL

     Reading dVscf from file hchain-dvscf1_
     Reading dynamics matrix from file hchain.dyn1

     Diagonalizing the dynamical matrix

     q = (    0.000000000   0.000000000   0.000000000 ) 

 **************************************************************************
     freq (    1) =     -19.969198 [THz] =    -666.100748 [cm-1]
     freq (    2) =     -19.969198 [THz] =    -666.100748 [cm-1]
     freq (    3) =       2.633012 [THz] =      87.827840 [cm-1]
     freq (    4) =       3.240935 [THz] =     108.105971 [cm-1]
     freq (    5) =       3.240935 [THz] =     108.105971 [cm-1]
     freq (    6) =     133.507016 [THz] =    4453.314705 [cm-1]
 **************************************************************************
     electron-phonon interaction (to be used in YAMBO)  ...


     Calculation of q =   -0.1666667   0.0000000   0.0000000

     G-vector sticks info
     --------------------
     sticks:   dense  smooth     PW     G-vecs:    dense   smooth      PW
     Sum         661     661    205                17717    17717    3167

     Using Slab Decomposition


     Title: 
     hchain_dvscf                                                               


     bravais-lattice index     =            8
     lattice parameter (alat)  =       5.1779  a.u.
     unit-cell volume          =     517.7850 (a.u.)^3
     number of atoms/cell      =            2
     number of atomic types    =            1
     number of electrons       =         2.00
     number of Kohn-Sham states=           10
     kinetic-energy cutoff     =      40.0000  Ry
     charge density cutoff     =     160.0000  Ry
     Exchange-correlation= PBE
                           (   1   4   3   4   0   0   0)

     celldm(1)=   5.177850  celldm(2)=   1.931304  celldm(3)=   1.931304
     celldm(4)=   0.000000  celldm(5)=   0.000000  celldm(6)=   0.000000

     crystal axes: (cart. coord. in units of alat)
               a(1) = (   1.000000   0.000000   0.000000 )  
               a(2) = (   0.000000   1.931304   0.000000 )  
               a(3) = (   0.000000   0.000000   1.931304 )  

     reciprocal axes: (cart. coord. in units 2 pi/alat)
               b(1) = (  1.000000  0.000000  0.000000 )  
               b(2) = (  0.000000  0.517785  0.000000 )  
               b(3) = (  0.000000  0.000000  0.517785 )  


     PseudoPot. # 1 for H  read from file:
     ./pseudo/H_ONCV_PBE.upf
     MD5 check sum: e96aa7e3e4a958db16958554ea960e2a
     Pseudo is Norm-conserving, Zval =  1.0
     Generated using ONCVPSP code by D. R. Hamann
     Using radial grid of 1166 points,  3 beta functions with: 
                l(1) =   0
                l(2) =   0
                l(3) =   1

     atomic species   valence    mass     pseudopotential
        H              1.00     1.00794     H ( 1.00)

      8 Sym. Ops. (no inversion) found


                                    s                        frac. trans.

      isym =  1     identity                                     

 cryst.   s( 1) = (     1          0          0      )
                  (     0          1          0      )
                  (     0          0          1      )

 cart.    s( 1) = (  1.0000000  0.0000000  0.0000000 )
                  (  0.0000000  1.0000000  0.0000000 )
                  (  0.0000000  0.0000000  1.0000000 )


      isym =  2     180 deg rotation - cart. axis [1,0,0]        

 cryst.   s( 2) = (     1          0          0      )
                  (     0         -1          0      )
                  (     0          0         -1      )

 cart.    s( 2) = (  1.0000000  0.0000000  0.0000000 )
                  (  0.0000000 -1.0000000  0.0000000 )
                  (  0.0000000  0.0000000 -1.0000000 )


      isym =  3      90 deg rotation - cart. axis [-1,0,0]       

 cryst.   s( 3) = (     1          0          0      )
                  (     0          0         -1      )
                  (     0          1          0      )

 cart.    s( 3) = (  1.0000000  0.0000000  0.0000000 )
                  (  0.0000000  0.0000000  1.0000000 )
                  (  0.0000000 -1.0000000  0.0000000 )


      isym =  4      90 deg rotation - cart. axis [1,0,0]        

 cryst.   s( 4) = (     1          0          0      )
                  (     0          0          1      )
                  (     0         -1          0      )

 cart.    s( 4) = (  1.0000000  0.0000000  0.0000000 )
                  (  0.0000000  0.0000000 -1.0000000 )
                  (  0.0000000  1.0000000  0.0000000 )


      isym =  5     inv. 180 deg rotation - cart. axis [0,0,1]   

 cryst.   s( 5) = (     1          0          0      )
                  (     0          1          0      )
                  (     0          0         -1      )

 cart.    s( 5) = (  1.0000000  0.0000000  0.0000000 )
                  (  0.0000000  1.0000000  0.0000000 )
                  (  0.0000000  0.0000000 -1.0000000 )


      isym =  6     inv. 180 deg rotation - cart. axis [0,1,0]   

 cryst.   s( 6) = (     1          0          0      )
                  (     0         -1          0      )
                  (     0          0          1      )

 cart.    s( 6) = (  1.0000000  0.0000000  0.0000000 )
                  (  0.0000000 -1.0000000  0.0000000 )
                  (  0.0000000  0.0000000  1.0000000 )


      isym =  7     inv. 180 deg rotation - cart. axis [0,1,1]   

 cryst.   s( 7) = (     1          0          0      )
                  (     0          0         -1      )
                  (     0         -1          0      )

 cart.    s( 7) = (  1.0000000  0.0000000  0.0000000 )
                  (  0.0000000  0.0000000 -1.0000000 )
                  (  0.0000000 -1.0000000  0.0000000 )


      isym =  8     inv. 180 deg rotation - cart. axis [0,1,-1]  

 cryst.   s( 8) = (     1          0          0      )
                  (     0          0          1      )
                  (     0          1          0      )

 cart.    s( 8) = (  1.0000000  0.0000000  0.0000000 )
                  (  0.0000000  0.0000000  1.0000000 )
                  (  0.0000000  1.0000000  0.0000000 )


     point group C_4v (4mm) 
     there are  5 classes
     the character table:

       E     2C4   C2    2s_v  2s_d 
A_1    1.00  1.00  1.00  1.00  1.00
A_2    1.00  1.00  1.00 -1.00 -1.00
B_1    1.00 -1.00  1.00  1.00 -1.00
B_2    1.00 -1.00  1.00 -1.00  1.00
E      2.00  0.00 -2.00  0.00  0.00

     the symmetry operations in each class and the name of the first element:

     E        1
          identity                                               
     2C4      3    4
           90 deg rotation - cart. axis [-1,0,0]                 
     C2       2
          180 deg rotation - cart. axis [1,0,0]                  
     2s_v     5    6
          inv. 180 deg rotation - cart. axis [0,0,1]             
     2s_d     7    8
          inv. 180 deg rotation - cart. axis [0,1,1]             

   Cartesian axes

     site n.     atom                  positions (alat units)
         1           H   tau(   1) = (   0.0000000   0.0000000   0.0000000  )
         2           H   tau(   2) = (   0.2700730   0.0000000   0.0000000  )

   Crystallographic axes

     site n.     atom                  positions (cryst. coord.)
         1           H   tau(   1) = (  0.0000000  0.0000000  0.0000000  )
         2           H   tau(   2) = (  0.2700730  0.0000000  0.0000000  )

     number of k points=    12
                       cart. coord. in units 2pi/alat
        k(    1) = (   0.0000000   0.0000000   0.0000000), wk =   0.3333333
        k(    2) = (  -0.1666667   0.0000000   0.0000000), wk =   0.0000000
        k(    3) = (   0.1666667   0.0000000   0.0000000), wk =   0.3333333
        k(    4) = (  -0.0000000   0.0000000   0.0000000), wk =   0.0000000
        k(    5) = (   0.3333333   0.0000000   0.0000000), wk =   0.3333333
        k(    6) = (   0.1666666   0.0000000   0.0000000), wk =   0.0000000
        k(    7) = (  -0.5000000   0.0000000   0.0000000), wk =   0.3333333
        k(    8) = (  -0.6666667   0.0000000   0.0000000), wk =   0.0000000
        k(    9) = (  -0.1666667   0.0000000   0.0000000), wk =   0.3333333
        k(   10) = (  -0.3333334   0.0000000   0.0000000), wk =   0.0000000
        k(   11) = (  -0.3333333   0.0000000   0.0000000), wk =   0.3333333
        k(   12) = (  -0.5000000   0.0000000   0.0000000), wk =   0.0000000

                       cryst. coord.
        k(    1) = (   0.0000000   0.0000000   0.0000000), wk =   0.3333333
        k(    2) = (  -0.1666667   0.0000000   0.0000000), wk =   0.0000000
        k(    3) = (   0.1666667   0.0000000   0.0000000), wk =   0.3333333
        k(    4) = (  -0.0000000   0.0000000   0.0000000), wk =   0.0000000
        k(    5) = (   0.3333333   0.0000000   0.0000000), wk =   0.3333333
        k(    6) = (   0.1666666   0.0000000   0.0000000), wk =   0.0000000
        k(    7) = (  -0.5000000   0.0000000   0.0000000), wk =   0.3333333
        k(    8) = (  -0.6666667   0.0000000   0.0000000), wk =   0.0000000
        k(    9) = (  -0.1666667   0.0000000   0.0000000), wk =   0.3333333
        k(   10) = (  -0.3333334   0.0000000   0.0000000), wk =   0.0000000
        k(   11) = (  -0.3333333   0.0000000   0.0000000), wk =   0.3333333
        k(   12) = (  -0.5000000   0.0000000   0.0000000), wk =   0.0000000

     Dense  grid:    17717 G-vectors     FFT dimensions: (  24,  45,  45)

     Dynamical RAM for                 wfc:       0.34 MB

     Dynamical RAM for     wfc (w. buffer):       0.34 MB

     Dynamical RAM for           str. fact:       0.27 MB

     Dynamical RAM for           local pot:       0.01 MB

     Dynamical RAM for          nlocal pot:       0.34 MB

     Dynamical RAM for                qrad:       0.18 MB

     Dynamical RAM for          rho,v,vnew:       1.92 MB

     Dynamical RAM for           G-vectors:       1.15 MB

     Dynamical RAM for          h,s,v(r/c):       0.07 MB

     Dynamical RAM for          <psi|beta>:       0.00 MB

     Dynamical RAM for                 psi:       1.35 MB

     Dynamical RAM for                hpsi:       1.35 MB

     Dynamical RAM for      wfcinit/wfcrot:       0.68 MB

     Estimated static dynamical RAM per process >       6.60 MB

     Estimated max dynamical RAM per process >       9.37 MB

     The potential is recalculated from file :
     ./_ph0/hchain.save/charge-density

     Starting wfcs are    2 atomic +    8 random wfcs

     Band Structure Calculation
     Davidson diagonalization with overlap

     Computing kpt #:     1
     total cpu time spent up to now is        0.9 secs

     Computing kpt #:     2
     total cpu time spent up to now is        1.1 secs

     Computing kpt #:     3
     total cpu time spent up to now is        1.2 secs

     Computing kpt #:     4
     total cpu time spent up to now is        1.4 secs

     Computing kpt #:     5
     total cpu time spent up to now is        1.5 secs

     Computing kpt #:     6
     total cpu time spent up to now is        1.7 secs

     Computing kpt #:     7
     total cpu time spent up to now is        1.9 secs

     Computing kpt #:     8
     total cpu time spent up to now is        2.1 secs

     Computing kpt #:     9
     total cpu time spent up to now is        2.2 secs

     Computing kpt #:    10
     total cpu time spent up to now is        2.4 secs

     Computing kpt #:    11
     total cpu time spent up to now is        2.6 secs

     Computing kpt #:    12
     total cpu time spent up to now is        2.8 secs

     ethr =  5.00E-10,  avg # of iterations = 14.8

     total cpu time spent up to now is        2.8 secs

     End of band structure calculation

          k = 0.0000 0.0000 0.0000 (  2231 PWs)   bands (ev):

   -10.9272   0.0148   2.5265   2.5265   3.8947   7.1665   8.4135   8.4135
     8.6092   9.9730

     occupation numbers 
     1.0000   0.0000   0.0000   0.0000   0.0000   0.0000   0.0000   0.0000
     0.0000   0.0000

          k =-0.1667 0.0000 0.0000 (  2183 PWs)   bands (ev):

   -10.5818   0.4587   3.0783   3.0783   4.4509   5.6563   8.3715   8.9634
     8.9634   9.1650

     occupation numbers 
     0.0000   0.0000   0.0000   0.0000   0.0000   0.0000   0.0000   0.0000
     0.0000   0.0000

          k = 0.1667 0.0000 0.0000 (  2183 PWs)   bands (ev):

   -10.5818   0.4587   3.0783   3.0783   4.4509   5.6563   8.3715   8.9634
     8.9634   9.1650

     occupation numbers 
     1.0000   0.0000   0.0000   0.0000   0.0000   0.0000   0.0000   0.0000
     0.0000   0.0000

          k =-0.0000 0.0000 0.0000 (  2231 PWs)   bands (ev):

   -10.9272   0.0148   2.5265   2.5265   3.8947   7.1665   8.4135   8.4135
     8.6092   9.9730

     occupation numbers 
     0.0000   0.0000   0.0000   0.0000   0.0000   0.0000   0.0000   0.0000
     0.0000   0.0000

          k = 0.3333 0.0000 0.0000 (  2214 PWs)   bands (ev):

    -9.7521   0.8369   3.3067   4.7242   4.7242   6.1187   9.0380  10.1667
    10.5233  10.5233

     occupation numbers 
     1.0000   0.0000   0.0000   0.0000   0.0000   0.0000   0.0000   0.0000
     0.0000   0.0000

          k = 0.1667 0.0000 0.0000 (  2183 PWs)   bands (ev):

   -10.5818   0.4587   3.0783   3.0783   4.4509   5.6563   8.3715   8.9634
     8.9634   9.1650

     occupation numbers 
     0.0000   0.0000   0.0000   0.0000   0.0000   0.0000   0.0000   0.0000
     0.0000   0.0000

          k =-0.5000 0.0000 0.0000 (  2218 PWs)   bands (ev):

    -9.2231  -0.1223   4.8178   6.1243   7.0046   7.0046   8.0670   8.0670
     8.7492   9.0600

     occupation numbers 
     1.0000   0.0000   0.0000   0.0000   0.0000   0.0000   0.0000   0.0000
     0.0000   0.0000

          k =-0.6667 0.0000 0.0000 (  2214 PWs)   bands (ev):

    -9.7521   0.8369   3.3067   4.7242   4.7242   6.1187   9.0380  10.1667
    10.5233  10.5233

     occupation numbers 
     0.0000   0.0000   0.0000   0.0000   0.0000   0.0000   0.0000   0.0000
     0.0000   0.0000

          k =-0.1667 0.0000 0.0000 (  2183 PWs)   bands (ev):

   -10.5818   0.4587   3.0783   3.0783   4.4509   5.6563   8.3715   8.9634
     8.9634   9.1650

     occupation numbers 
     1.0000   0.0000   0.0000   0.0000   0.0000   0.0000   0.0000   0.0000
     0.0000   0.0000

          k =-0.3333 0.0000 0.0000 (  2214 PWs)   bands (ev):

    -9.7521   0.8369   3.3067   4.7242   4.7242   6.1187   9.0380  10.1667
    10.5233  10.5233

     occupation numbers 
     0.0000   0.0000   0.0000   0.0000   0.0000   0.0000   0.0000   0.0000
     0.0000   0.0000

          k =-0.3333 0.0000 0.0000 (  2214 PWs)   bands (ev):

    -9.7521   0.8369   3.3067   4.7242   4.7242   6.1187   9.0380  10.1667
    10.5233  10.5233

     occupation numbers 
     1.0000   0.0000   0.0000   0.0000   0.0000   0.0000   0.0000   0.0000
     0.0000   0.0000

          k =-0.5000 0.0000 0.0000 (  2218 PWs)   bands (ev):

    -9.2231  -0.1223   4.8178   6.1243   7.0046   7.0046   8.0670   8.0670
     8.7492   9.0600

     occupation numbers 
     0.0000   0.0000   0.0000   0.0000   0.0000   0.0000   0.0000   0.0000
     0.0000   0.0000

     highest occupied, lowest unoccupied level (ev):    -9.2231   -0.1223

     Writing config to output data dir ./_ph0/hchain.save/

     hchain_dvscf                                                               

     bravais-lattice index     =            8
     lattice parameter (alat)  =       5.1779  a.u.
     unit-cell volume          =     517.7850 (a.u.)^3
     number of atoms/cell      =            2
     number of atomic types    =            1
     kinetic-energy cut-off    =      40.0000  Ry
     charge density cut-off    =     160.0000  Ry
     convergence threshold     =      1.0E-12
     beta                      =       0.7000
     number of iterations used =            4
     Exchange-correlation= PBE
                           (   1   4   3   4   0   0   0)


     celldm(1)=    5.17785  celldm(2)=    1.93130  celldm(3)=    1.93130
     celldm(4)=    0.00000  celldm(5)=    0.00000  celldm(6)=    0.00000

     crystal axes: (cart. coord. in units of alat)
               a(1) = (  1.0000  0.0000  0.0000 )  
               a(2) = (  0.0000  1.9313  0.0000 )  
               a(3) = (  0.0000  0.0000  1.9313 )  

     reciprocal axes: (cart. coord. in units 2 pi/alat)
               b(1) = (  1.0000  0.0000  0.0000 )  
               b(2) = (  0.0000  0.5178  0.0000 )  
               b(3) = (  0.0000  0.0000  0.5178 )  


     Atoms inside the unit cell: 

     Cartesian axes

     site n.  atom      mass           positions (alat units)
        1     H    1.0079   tau(    1) = (    0.00000    0.00000    0.00000  )
        2     H    1.0079   tau(    2) = (    0.27007    0.00000    0.00000  )

     Computing dynamical matrix for 
                    q = (  -0.1666667   0.0000000   0.0000000 )

      8 Sym.Ops. (no q -> -q+G )

                                    s                        frac. trans.

      isym =  1     identity                                     

 cryst.   s( 1) = (     1          0          0      )
                  (     0          1          0      )
                  (     0          0          1      )

 cart.    s( 1) = (  1.0000000  0.0000000  0.0000000 )
                  (  0.0000000  1.0000000  0.0000000 )
                  (  0.0000000  0.0000000  1.0000000 )


      isym =  2     180 deg rotation - cart. axis [1,0,0]        

 cryst.   s( 2) = (     1          0          0      )
                  (     0         -1          0      )
                  (     0          0         -1      )

 cart.    s( 2) = (  1.0000000  0.0000000  0.0000000 )
                  (  0.0000000 -1.0000000  0.0000000 )
                  (  0.0000000  0.0000000 -1.0000000 )


      isym =  3      90 deg rotation - cart. axis [-1,0,0]       

 cryst.   s( 3) = (     1          0          0      )
                  (     0          0         -1      )
                  (     0          1          0      )

 cart.    s( 3) = (  1.0000000  0.0000000  0.0000000 )
                  (  0.0000000  0.0000000  1.0000000 )
                  (  0.0000000 -1.0000000  0.0000000 )


      isym =  4      90 deg rotation - cart. axis [1,0,0]        

 cryst.   s( 4) = (     1          0          0      )
                  (     0          0          1      )
                  (     0         -1          0      )

 cart.    s( 4) = (  1.0000000  0.0000000  0.0000000 )
                  (  0.0000000  0.0000000 -1.0000000 )
                  (  0.0000000  1.0000000  0.0000000 )


      isym =  5     inv. 180 deg rotation - cart. axis [0,0,1]   

 cryst.   s( 5) = (     1          0          0      )
                  (     0          1          0      )
                  (     0          0         -1      )

 cart.    s( 5) = (  1.0000000  0.0000000  0.0000000 )
                  (  0.0000000  1.0000000  0.0000000 )
                  (  0.0000000  0.0000000 -1.0000000 )


      isym =  6     inv. 180 deg rotation - cart. axis [0,1,0]   

 cryst.   s( 6) = (     1          0          0      )
                  (     0         -1          0      )
                  (     0          0          1      )

 cart.    s( 6) = (  1.0000000  0.0000000  0.0000000 )
                  (  0.0000000 -1.0000000  0.0000000 )
                  (  0.0000000  0.0000000  1.0000000 )


      isym =  7     inv. 180 deg rotation - cart. axis [0,1,1]   

 cryst.   s( 7) = (     1          0          0      )
                  (     0          0         -1      )
                  (     0         -1          0      )

 cart.    s( 7) = (  1.0000000  0.0000000  0.0000000 )
                  (  0.0000000  0.0000000 -1.0000000 )
                  (  0.0000000 -1.0000000  0.0000000 )


      isym =  8     inv. 180 deg rotation - cart. axis [0,1,-1]  

 cryst.   s( 8) = (     1          0          0      )
                  (     0          0          1      )
                  (     0          1          0      )

 cart.    s( 8) = (  1.0000000  0.0000000  0.0000000 )
                  (  0.0000000  0.0000000  1.0000000 )
                  (  0.0000000  1.0000000  0.0000000 )


     G cutoff =  108.6574  (  17717 G-vectors)     FFT grid: ( 24, 45, 45)
     number of k points=    12
                       cart. coord. in units 2pi/alat
        k(    1) = (   0.0000000   0.0000000   0.0000000), wk =   0.3333333
        k(    2) = (  -0.1666667   0.0000000   0.0000000), wk =   0.0000000
        k(    3) = (   0.1666667   0.0000000   0.0000000), wk =   0.3333333
        k(    4) = (  -0.0000000   0.0000000   0.0000000), wk =   0.0000000
        k(    5) = (   0.3333333   0.0000000   0.0000000), wk =   0.3333333
        k(    6) = (   0.1666666   0.0000000   0.0000000), wk =   0.0000000
        k(    7) = (  -0.5000000   0.0000000   0.0000000), wk =   0.3333333
        k(    8) = (  -0.6666667   0.0000000   0.0000000), wk =   0.0000000
        k(    9) = (  -0.1666667   0.0000000   0.0000000), wk =   0.3333333
        k(   10) = (  -0.3333334   0.0000000   0.0000000), wk =   0.0000000
        k(   11) = (  -0.3333333   0.0000000   0.0000000), wk =   0.3333333
        k(   12) = (  -0.5000000   0.0000000   0.0000000), wk =   0.0000000

                       cryst. coord.
        k(    1) = (   0.0000000   0.0000000   0.0000000), wk =   0.3333333
        k(    2) = (  -0.1666667   0.0000000   0.0000000), wk =   0.0000000
        k(    3) = (   0.1666667   0.0000000   0.0000000), wk =   0.3333333
        k(    4) = (  -0.0000000   0.0000000   0.0000000), wk =   0.0000000
        k(    5) = (   0.3333333   0.0000000   0.0000000), wk =   0.3333333
        k(    6) = (   0.1666666   0.0000000   0.0000000), wk =   0.0000000
        k(    7) = (  -0.5000000   0.0000000   0.0000000), wk =   0.3333333
        k(    8) = (  -0.6666667   0.0000000   0.0000000), wk =   0.0000000
        k(    9) = (  -0.1666667   0.0000000   0.0000000), wk =   0.3333333
        k(   10) = (  -0.3333334   0.0000000   0.0000000), wk =   0.0000000
        k(   11) = (  -0.3333333   0.0000000   0.0000000), wk =   0.3333333
        k(   12) = (  -0.5000000   0.0000000   0.0000000), wk =   0.0000000

     PseudoPot. # 1 for H  read from file:
     ./pseudo/H_ONCV_PBE.upf
     MD5 check sum: e96aa7e3e4a958db16958554ea960e2a
     Pseudo is Norm-conserving, Zval =  1.0
     Generated using ONCVPSP code by D. R. Hamann
     Using radial grid of 1166 points,  3 beta functions with: 
                l(1) =   0
                l(2) =   0
                l(3) =   1

     point group C_4v (4mm) 
     there are  5 classes
     the character table:

       E     2C4   C2    2s_v  2s_d 
A_1    1.00  1.00  1.00  1.00  1.00
A_2    1.00  1.00  1.00 -1.00 -1.00
B_1    1.00 -1.00  1.00  1.00 -1.00
B_2    1.00 -1.00  1.00 -1.00  1.00
E      2.00  0.00 -2.00  0.00  0.00

     the symmetry operations in each class and the name of the first element:

     E        1
          identity                                               
     2C4      3    4
           90 deg rotation - cart. axis [-1,0,0]                 
     C2       2
          180 deg rotation - cart. axis [1,0,0]                  
     2s_v     5    6
          inv. 180 deg rotation - cart. axis [0,0,1]             
     2s_d     7    8
          inv. 180 deg rotation - cart. axis [0,1,1]             


     Atomic displacements:
     There are    4 irreducible representations

     Representation     1      1 modes -  To be done
     Irreps are as follows:

                     mode #   1
                     (  -0.00000  -0.00000   ) 
                     (  -0.00000  -0.00000   ) 
                     (  -0.00000  -0.00000   ) 
                     (  -1.00000  -0.00000   ) 
                     (  -0.00000  -0.00000   ) 
                     (  -0.00000  -0.00000   ) 

     Representation     2      1 modes -  To be done
     Irreps are as follows:

                     mode #   2
                     (  -1.00000  -0.00000   ) 
                     (  -0.00000  -0.00000   ) 
                     (  -0.00000  -0.00000   ) 
                     (  -0.00000  -0.00000   ) 
                     (  -0.00000  -0.00000   ) 
                     (  -0.00000  -0.00000   ) 

     Representation     3      2 modes -  To be done
     Irreps are as follows:

           mode #   3                           mode #   4
           (  -0.00000  -0.00000   )            (  -0.00000  -0.00000   ) 
           (  -1.00000  -0.00000   )            (  -0.00000  -0.00000   ) 
           (  -0.00000  -0.00000   )            (  -1.00000  -0.00000   ) 
           (  -0.00000  -0.00000   )            (  -0.00000  -0.00000   ) 
           (  -0.00000  -0.00000   )            (  -0.00000  -0.00000   ) 
           (  -0.00000  -0.00000   )            (  -0.00000  -0.00000   ) 

     Representation     4      2 modes -  To be done
     Irreps are as follows:

           mode #   5                           mode #   6
           (  -0.00000  -0.00000   )            (  -0.00000  -0.00000   ) 
           (  -0.00000  -0.00000   )            (  -0.00000  -0.00000   ) 
           (  -0.00000  -0.00000   )            (  -0.00000  -0.00000   ) 
           (  -0.00000  -0.00000   )            (  -0.00000  -0.00000   ) 
           (  -1.00000  -0.00000   )            (  -0.00000  -0.00000   ) 
           (  -0.00000  -0.00000   )            (  -1.00000  -0.00000   ) 


     PHONON       :      3.67s CPU      3.74s WALL

     Reading dVscf from file hchain-dvscf2_
     Reading dynamics matrix from file hchain.dyn2

     Diagonalizing the dynamical matrix

     q = (   -0.166666700   0.000000000   0.000000000 ) 

 **************************************************************************
     freq (    1) =     -19.590088 [THz] =    -653.455010 [cm-1]
     freq (    2) =     -19.590088 [THz] =    -653.455010 [cm-1]
     freq (    3) =       1.391656 [THz] =      46.420640 [cm-1]
     freq (    4) =       1.391656 [THz] =      46.420640 [cm-1]
     freq (    5) =       6.794536 [THz] =     226.641327 [cm-1]
     freq (    6) =     133.631495 [THz] =    4457.466874 [cm-1]
 **************************************************************************
     electron-phonon interaction (to be used in YAMBO)  ...


     Calculation of q =   -0.3333333   0.0000000   0.0000000

     G-vector sticks info
     --------------------
     sticks:   dense  smooth     PW     G-vecs:    dense   smooth      PW
     Sum         661     661    223                17717    17717    3449

     Using Slab Decomposition


     Title: 
     hchain_dvscf                                                               


     bravais-lattice index     =            8
     lattice parameter (alat)  =       5.1779  a.u.
     unit-cell volume          =     517.7850 (a.u.)^3
     number of atoms/cell      =            2
     number of atomic types    =            1
     number of electrons       =         2.00
     number of Kohn-Sham states=           10
     kinetic-energy cutoff     =      40.0000  Ry
     charge density cutoff     =     160.0000  Ry
     Exchange-correlation= PBE
                           (   1   4   3   4   0   0   0)

     celldm(1)=   5.177850  celldm(2)=   1.931304  celldm(3)=   1.931304
     celldm(4)=   0.000000  celldm(5)=   0.000000  celldm(6)=   0.000000

     crystal axes: (cart. coord. in units of alat)
               a(1) = (   1.000000   0.000000   0.000000 )  
               a(2) = (   0.000000   1.931304   0.000000 )  
               a(3) = (   0.000000   0.000000   1.931304 )  

     reciprocal axes: (cart. coord. in units 2 pi/alat)
               b(1) = (  1.000000  0.000000  0.000000 )  
               b(2) = (  0.000000  0.517785  0.000000 )  
               b(3) = (  0.000000  0.000000  0.517785 )  


     PseudoPot. # 1 for H  read from file:
     ./pseudo/H_ONCV_PBE.upf
     MD5 check sum: e96aa7e3e4a958db16958554ea960e2a
     Pseudo is Norm-conserving, Zval =  1.0
     Generated using ONCVPSP code by D. R. Hamann
     Using radial grid of 1166 points,  3 beta functions with: 
                l(1) =   0
                l(2) =   0
                l(3) =   1

     atomic species   valence    mass     pseudopotential
        H              1.00     1.00794     H ( 1.00)

      8 Sym. Ops. (no inversion) found


                                    s                        frac. trans.

      isym =  1     identity                                     

 cryst.   s( 1) = (     1          0          0      )
                  (     0          1          0      )
                  (     0          0          1      )

 cart.    s( 1) = (  1.0000000  0.0000000  0.0000000 )
                  (  0.0000000  1.0000000  0.0000000 )
                  (  0.0000000  0.0000000  1.0000000 )


      isym =  2     180 deg rotation - cart. axis [1,0,0]        

 cryst.   s( 2) = (     1          0          0      )
                  (     0         -1          0      )
                  (     0          0         -1      )

 cart.    s( 2) = (  1.0000000  0.0000000  0.0000000 )
                  (  0.0000000 -1.0000000  0.0000000 )
                  (  0.0000000  0.0000000 -1.0000000 )


      isym =  3      90 deg rotation - cart. axis [-1,0,0]       

 cryst.   s( 3) = (     1          0          0      )
                  (     0          0         -1      )
                  (     0          1          0      )

 cart.    s( 3) = (  1.0000000  0.0000000  0.0000000 )
                  (  0.0000000  0.0000000  1.0000000 )
                  (  0.0000000 -1.0000000  0.0000000 )


      isym =  4      90 deg rotation - cart. axis [1,0,0]        

 cryst.   s( 4) = (     1          0          0      )
                  (     0          0          1      )
                  (     0         -1          0      )

 cart.    s( 4) = (  1.0000000  0.0000000  0.0000000 )
                  (  0.0000000  0.0000000 -1.0000000 )
                  (  0.0000000  1.0000000  0.0000000 )


      isym =  5     inv. 180 deg rotation - cart. axis [0,0,1]   

 cryst.   s( 5) = (     1          0          0      )
                  (     0          1          0      )
                  (     0          0         -1      )

 cart.    s( 5) = (  1.0000000  0.0000000  0.0000000 )
                  (  0.0000000  1.0000000  0.0000000 )
                  (  0.0000000  0.0000000 -1.0000000 )


      isym =  6     inv. 180 deg rotation - cart. axis [0,1,0]   

 cryst.   s( 6) = (     1          0          0      )
                  (     0         -1          0      )
                  (     0          0          1      )

 cart.    s( 6) = (  1.0000000  0.0000000  0.0000000 )
                  (  0.0000000 -1.0000000  0.0000000 )
                  (  0.0000000  0.0000000  1.0000000 )


      isym =  7     inv. 180 deg rotation - cart. axis [0,1,1]   

 cryst.   s( 7) = (     1          0          0      )
                  (     0          0         -1      )
                  (     0         -1          0      )

 cart.    s( 7) = (  1.0000000  0.0000000  0.0000000 )
                  (  0.0000000  0.0000000 -1.0000000 )
                  (  0.0000000 -1.0000000  0.0000000 )


      isym =  8     inv. 180 deg rotation - cart. axis [0,1,-1]  

 cryst.   s( 8) = (     1          0          0      )
                  (     0          0          1      )
                  (     0          1          0      )

 cart.    s( 8) = (  1.0000000  0.0000000  0.0000000 )
                  (  0.0000000  0.0000000  1.0000000 )
                  (  0.0000000  1.0000000  0.0000000 )


     point group C_4v (4mm) 
     there are  5 classes
     the character table:

       E     2C4   C2    2s_v  2s_d 
A_1    1.00  1.00  1.00  1.00  1.00
A_2    1.00  1.00  1.00 -1.00 -1.00
B_1    1.00 -1.00  1.00  1.00 -1.00
B_2    1.00 -1.00  1.00 -1.00  1.00
E      2.00  0.00 -2.00  0.00  0.00

     the symmetry operations in each class and the name of the first element:

     E        1
          identity                                               
     2C4      3    4
           90 deg rotation - cart. axis [-1,0,0]                 
     C2       2
          180 deg rotation - cart. axis [1,0,0]                  
     2s_v     5    6
          inv. 180 deg rotation - cart. axis [0,0,1]             
     2s_d     7    8
          inv. 180 deg rotation - cart. axis [0,1,1]             

   Cartesian axes

     site n.     atom                  positions (alat units)
         1           H   tau(   1) = (   0.0000000   0.0000000   0.0000000  )
         2           H   tau(   2) = (   0.2700730   0.0000000   0.0000000  )

   Crystallographic axes

     site n.     atom                  positions (cryst. coord.)
         1           H   tau(   1) = (  0.0000000  0.0000000  0.0000000  )
         2           H   tau(   2) = (  0.2700730  0.0000000  0.0000000  )

     number of k points=    12
                       cart. coord. in units 2pi/alat
        k(    1) = (   0.0000000   0.0000000   0.0000000), wk =   0.3333333
        k(    2) = (  -0.3333333   0.0000000   0.0000000), wk =   0.0000000
        k(    3) = (   0.1666667   0.0000000   0.0000000), wk =   0.3333333
        k(    4) = (  -0.1666666   0.0000000   0.0000000), wk =   0.0000000
        k(    5) = (   0.3333333   0.0000000   0.0000000), wk =   0.3333333
        k(    6) = (   0.0000000   0.0000000   0.0000000), wk =   0.0000000
        k(    7) = (  -0.5000000   0.0000000   0.0000000), wk =   0.3333333
        k(    8) = (  -0.8333333   0.0000000   0.0000000), wk =   0.0000000
        k(    9) = (  -0.1666667   0.0000000   0.0000000), wk =   0.3333333
        k(   10) = (  -0.5000000   0.0000000   0.0000000), wk =   0.0000000
        k(   11) = (  -0.3333333   0.0000000   0.0000000), wk =   0.3333333
        k(   12) = (  -0.6666666   0.0000000   0.0000000), wk =   0.0000000

                       cryst. coord.
        k(    1) = (   0.0000000   0.0000000   0.0000000), wk =   0.3333333
        k(    2) = (  -0.3333333   0.0000000   0.0000000), wk =   0.0000000
        k(    3) = (   0.1666667   0.0000000   0.0000000), wk =   0.3333333
        k(    4) = (  -0.1666666   0.0000000   0.0000000), wk =   0.0000000
        k(    5) = (   0.3333333   0.0000000   0.0000000), wk =   0.3333333
        k(    6) = (   0.0000000   0.0000000   0.0000000), wk =   0.0000000
        k(    7) = (  -0.5000000   0.0000000   0.0000000), wk =   0.3333333
        k(    8) = (  -0.8333333   0.0000000   0.0000000), wk =   0.0000000
        k(    9) = (  -0.1666667   0.0000000   0.0000000), wk =   0.3333333
        k(   10) = (  -0.5000000   0.0000000   0.0000000), wk =   0.0000000
        k(   11) = (  -0.3333333   0.0000000   0.0000000), wk =   0.3333333
        k(   12) = (  -0.6666666   0.0000000   0.0000000), wk =   0.0000000

     Dense  grid:    17717 G-vectors     FFT dimensions: (  24,  45,  45)

     Dynamical RAM for                 wfc:       0.34 MB

     Dynamical RAM for     wfc (w. buffer):       0.34 MB

     Dynamical RAM for           str. fact:       0.27 MB

     Dynamical RAM for           local pot:       0.01 MB

     Dynamical RAM for          nlocal pot:       0.34 MB

     Dynamical RAM for                qrad:       0.18 MB

     Dynamical RAM for          rho,v,vnew:       1.92 MB

     Dynamical RAM for           G-vectors:       1.15 MB

     Dynamical RAM for          h,s,v(r/c):       0.07 MB

     Dynamical RAM for          <psi|beta>:       0.00 MB

     Dynamical RAM for                 psi:       1.35 MB

     Dynamical RAM for                hpsi:       1.35 MB

     Dynamical RAM for      wfcinit/wfcrot:       0.68 MB

     Estimated static dynamical RAM per process >       6.60 MB

     Estimated max dynamical RAM per process >       9.38 MB

     The potential is recalculated from file :
     ./_ph0/hchain.save/charge-density

     Starting wfcs are    2 atomic +    8 random wfcs

     Band Structure Calculation
     Davidson diagonalization with overlap

     Computing kpt #:     1
     total cpu time spent up to now is        3.0 secs

     Computing kpt #:     2
     total cpu time spent up to now is        3.2 secs

     Computing kpt #:     3
     total cpu time spent up to now is        3.3 secs

     Computing kpt #:     4
     total cpu time spent up to now is        3.5 secs

     Computing kpt #:     5
     total cpu time spent up to now is        3.7 secs

     Computing kpt #:     6
     total cpu time spent up to now is        3.8 secs

     Computing kpt #:     7
     total cpu time spent up to now is        4.0 secs

     Computing kpt #:     8
     total cpu time spent up to now is        4.2 secs

     Computing kpt #:     9
     total cpu time spent up to now is        4.4 secs

     Computing kpt #:    10
     total cpu time spent up to now is        4.5 secs

     Computing kpt #:    11
     total cpu time spent up to now is        4.7 secs

     Computing kpt #:    12
     total cpu time spent up to now is        4.9 secs

     ethr =  5.00E-10,  avg # of iterations = 14.4

     total cpu time spent up to now is        4.9 secs

     End of band structure calculation

          k = 0.0000 0.0000 0.0000 (  2231 PWs)   bands (ev):

   -10.9272   0.0148   2.5265   2.5265   3.8947   7.1665   8.4135   8.4135
     8.6092   9.9730

     occupation numbers 
     1.0000   0.0000   0.0000   0.0000   0.0000   0.0000   0.0000   0.0000
     0.0000   0.0000

          k =-0.3333 0.0000 0.0000 (  2214 PWs)   bands (ev):

    -9.7521   0.8369   3.3067   4.7242   4.7242   6.1187   9.0380  10.1667
    10.5233  10.5233

     occupation numbers 
     0.0000   0.0000   0.0000   0.0000   0.0000   0.0000   0.0000   0.0000
     0.0000   0.0000

          k = 0.1667 0.0000 0.0000 (  2183 PWs)   bands (ev):

   -10.5818   0.4587   3.0783   3.0783   4.4509   5.6563   8.3715   8.9634
     8.9634   9.1650

     occupation numbers 
     1.0000   0.0000   0.0000   0.0000   0.0000   0.0000   0.0000   0.0000
     0.0000   0.0000

          k =-0.1667 0.0000 0.0000 (  2183 PWs)   bands (ev):

   -10.5818   0.4587   3.0783   3.0783   4.4509   5.6563   8.3715   8.9634
     8.9634   9.1650

     occupation numbers 
     0.0000   0.0000   0.0000   0.0000   0.0000   0.0000   0.0000   0.0000
     0.0000   0.0000

          k = 0.3333 0.0000 0.0000 (  2214 PWs)   bands (ev):

    -9.7521   0.8369   3.3067   4.7242   4.7242   6.1187   9.0380  10.1667
    10.5233  10.5233

     occupation numbers 
     1.0000   0.0000   0.0000   0.0000   0.0000   0.0000   0.0000   0.0000
     0.0000   0.0000

          k = 0.0000 0.0000 0.0000 (  2231 PWs)   bands (ev):

   -10.9272   0.0148   2.5265   2.5265   3.8947   7.1665   8.4135   8.4135
     8.6092   9.9730

     occupation numbers 
     0.0000   0.0000   0.0000   0.0000   0.0000   0.0000   0.0000   0.0000
     0.0000   0.0000

          k =-0.5000 0.0000 0.0000 (  2218 PWs)   bands (ev):

    -9.2231  -0.1223   4.8178   6.1243   7.0046   7.0046   8.0670   8.0670
     8.7492   9.0600

     occupation numbers 
     1.0000   0.0000   0.0000   0.0000   0.0000   0.0000   0.0000   0.0000
     0.0000   0.0000

          k =-0.8333 0.0000 0.0000 (  2183 PWs)   bands (ev):

   -10.5818   0.4587   3.0783   3.0783   4.4509   5.6563   8.3715   8.9634
     8.9634   9.1650

     occupation numbers 
     0.0000   0.0000   0.0000   0.0000   0.0000   0.0000   0.0000   0.0000
     0.0000   0.0000

          k =-0.1667 0.0000 0.0000 (  2183 PWs)   bands (ev):

   -10.5818   0.4587   3.0783   3.0783   4.4509   5.6563   8.3715   8.9634
     8.9634   9.1650

     occupation numbers 
     1.0000   0.0000   0.0000   0.0000   0.0000   0.0000   0.0000   0.0000
     0.0000   0.0000

          k =-0.5000 0.0000 0.0000 (  2218 PWs)   bands (ev):

    -9.2231  -0.1223   4.8178   6.1243   7.0046   7.0046   8.0670   8.0670
     8.7492   9.0600

     occupation numbers 
     0.0000   0.0000   0.0000   0.0000   0.0000   0.0000   0.0000   0.0000
     0.0000   0.0000

          k =-0.3333 0.0000 0.0000 (  2214 PWs)   bands (ev):

    -9.7521   0.8369   3.3067   4.7242   4.7242   6.1187   9.0380  10.1667
    10.5233  10.5233

     occupation numbers 
     1.0000   0.0000   0.0000   0.0000   0.0000   0.0000   0.0000   0.0000
     0.0000   0.0000

          k =-0.6667 0.0000 0.0000 (  2214 PWs)   bands (ev):

    -9.7521   0.8369   3.3067   4.7242   4.7242   6.1187   9.0380  10.1667
    10.5233  10.5233

     occupation numbers 
     0.0000   0.0000   0.0000   0.0000   0.0000   0.0000   0.0000   0.0000
     0.0000   0.0000

     highest occupied, lowest unoccupied level (ev):    -9.2231   -0.1223

     Writing config to output data dir ./_ph0/hchain.save/

     hchain_dvscf                                                               

     bravais-lattice index     =            8
     lattice parameter (alat)  =       5.1779  a.u.
     unit-cell volume          =     517.7850 (a.u.)^3
     number of atoms/cell      =            2
     number of atomic types    =            1
     kinetic-energy cut-off    =      40.0000  Ry
     charge density cut-off    =     160.0000  Ry
     convergence threshold     =      1.0E-12
     beta                      =       0.7000
     number of iterations used =            4
     Exchange-correlation= PBE
                           (   1   4   3   4   0   0   0)


     celldm(1)=    5.17785  celldm(2)=    1.93130  celldm(3)=    1.93130
     celldm(4)=    0.00000  celldm(5)=    0.00000  celldm(6)=    0.00000

     crystal axes: (cart. coord. in units of alat)
               a(1) = (  1.0000  0.0000  0.0000 )  
               a(2) = (  0.0000  1.9313  0.0000 )  
               a(3) = (  0.0000  0.0000  1.9313 )  

     reciprocal axes: (cart. coord. in units 2 pi/alat)
               b(1) = (  1.0000  0.0000  0.0000 )  
               b(2) = (  0.0000  0.5178  0.0000 )  
               b(3) = (  0.0000  0.0000  0.5178 )  


     Atoms inside the unit cell: 

     Cartesian axes

     site n.  atom      mass           positions (alat units)
        1     H    1.0079   tau(    1) = (    0.00000    0.00000    0.00000  )
        2     H    1.0079   tau(    2) = (    0.27007    0.00000    0.00000  )

     Computing dynamical matrix for 
                    q = (  -0.3333333   0.0000000   0.0000000 )

      8 Sym.Ops. (no q -> -q+G )

                                    s                        frac. trans.

      isym =  1     identity                                     

 cryst.   s( 1) = (     1          0          0      )
                  (     0          1          0      )
                  (     0          0          1      )

 cart.    s( 1) = (  1.0000000  0.0000000  0.0000000 )
                  (  0.0000000  1.0000000  0.0000000 )
                  (  0.0000000  0.0000000  1.0000000 )


      isym =  2     180 deg rotation - cart. axis [1,0,0]        

 cryst.   s( 2) = (     1          0          0      )
                  (     0         -1          0      )
                  (     0          0         -1      )

 cart.    s( 2) = (  1.0000000  0.0000000  0.0000000 )
                  (  0.0000000 -1.0000000  0.0000000 )
                  (  0.0000000  0.0000000 -1.0000000 )


      isym =  3      90 deg rotation - cart. axis [-1,0,0]       

 cryst.   s( 3) = (     1          0          0      )
                  (     0          0         -1      )
                  (     0          1          0      )

 cart.    s( 3) = (  1.0000000  0.0000000  0.0000000 )
                  (  0.0000000  0.0000000  1.0000000 )
                  (  0.0000000 -1.0000000  0.0000000 )


      isym =  4      90 deg rotation - cart. axis [1,0,0]        

 cryst.   s( 4) = (     1          0          0      )
                  (     0          0          1      )
                  (     0         -1          0      )

 cart.    s( 4) = (  1.0000000  0.0000000  0.0000000 )
                  (  0.0000000  0.0000000 -1.0000000 )
                  (  0.0000000  1.0000000  0.0000000 )


      isym =  5     inv. 180 deg rotation - cart. axis [0,0,1]   

 cryst.   s( 5) = (     1          0          0      )
                  (     0          1          0      )
                  (     0          0         -1      )

 cart.    s( 5) = (  1.0000000  0.0000000  0.0000000 )
                  (  0.0000000  1.0000000  0.0000000 )
                  (  0.0000000  0.0000000 -1.0000000 )


      isym =  6     inv. 180 deg rotation - cart. axis [0,1,0]   

 cryst.   s( 6) = (     1          0          0      )
                  (     0         -1          0      )
                  (     0          0          1      )

 cart.    s( 6) = (  1.0000000  0.0000000  0.0000000 )
                  (  0.0000000 -1.0000000  0.0000000 )
                  (  0.0000000  0.0000000  1.0000000 )


      isym =  7     inv. 180 deg rotation - cart. axis [0,1,1]   

 cryst.   s( 7) = (     1          0          0      )
                  (     0          0         -1      )
                  (     0         -1          0      )

 cart.    s( 7) = (  1.0000000  0.0000000  0.0000000 )
                  (  0.0000000  0.0000000 -1.0000000 )
                  (  0.0000000 -1.0000000  0.0000000 )


      isym =  8     inv. 180 deg rotation - cart. axis [0,1,-1]  

 cryst.   s( 8) = (     1          0          0      )
                  (     0          0          1      )
                  (     0          1          0      )

 cart.    s( 8) = (  1.0000000  0.0000000  0.0000000 )
                  (  0.0000000  0.0000000  1.0000000 )
                  (  0.0000000  1.0000000  0.0000000 )


     G cutoff =  108.6574  (  17717 G-vectors)     FFT grid: ( 24, 45, 45)
     number of k points=    12
                       cart. coord. in units 2pi/alat
        k(    1) = (   0.0000000   0.0000000   0.0000000), wk =   0.3333333
        k(    2) = (  -0.3333333   0.0000000   0.0000000), wk =   0.0000000
        k(    3) = (   0.1666667   0.0000000   0.0000000), wk =   0.3333333
        k(    4) = (  -0.1666666   0.0000000   0.0000000), wk =   0.0000000
        k(    5) = (   0.3333333   0.0000000   0.0000000), wk =   0.3333333
        k(    6) = (   0.0000000   0.0000000   0.0000000), wk =   0.0000000
        k(    7) = (  -0.5000000   0.0000000   0.0000000), wk =   0.3333333
        k(    8) = (  -0.8333333   0.0000000   0.0000000), wk =   0.0000000
        k(    9) = (  -0.1666667   0.0000000   0.0000000), wk =   0.3333333
        k(   10) = (  -0.5000000   0.0000000   0.0000000), wk =   0.0000000
        k(   11) = (  -0.3333333   0.0000000   0.0000000), wk =   0.3333333
        k(   12) = (  -0.6666666   0.0000000   0.0000000), wk =   0.0000000

                       cryst. coord.
        k(    1) = (   0.0000000   0.0000000   0.0000000), wk =   0.3333333
        k(    2) = (  -0.3333333   0.0000000   0.0000000), wk =   0.0000000
        k(    3) = (   0.1666667   0.0000000   0.0000000), wk =   0.3333333
        k(    4) = (  -0.1666666   0.0000000   0.0000000), wk =   0.0000000
        k(    5) = (   0.3333333   0.0000000   0.0000000), wk =   0.3333333
        k(    6) = (   0.0000000   0.0000000   0.0000000), wk =   0.0000000
        k(    7) = (  -0.5000000   0.0000000   0.0000000), wk =   0.3333333
        k(    8) = (  -0.8333333   0.0000000   0.0000000), wk =   0.0000000
        k(    9) = (  -0.1666667   0.0000000   0.0000000), wk =   0.3333333
        k(   10) = (  -0.5000000   0.0000000   0.0000000), wk =   0.0000000
        k(   11) = (  -0.3333333   0.0000000   0.0000000), wk =   0.3333333
        k(   12) = (  -0.6666666   0.0000000   0.0000000), wk =   0.0000000

     PseudoPot. # 1 for H  read from file:
     ./pseudo/H_ONCV_PBE.upf
     MD5 check sum: e96aa7e3e4a958db16958554ea960e2a
     Pseudo is Norm-conserving, Zval =  1.0
     Generated using ONCVPSP code by D. R. Hamann
     Using radial grid of 1166 points,  3 beta functions with: 
                l(1) =   0
                l(2) =   0
                l(3) =   1

     point group C_4v (4mm) 
     there are  5 classes
     the character table:

       E     2C4   C2    2s_v  2s_d 
A_1    1.00  1.00  1.00  1.00  1.00
A_2    1.00  1.00  1.00 -1.00 -1.00
B_1    1.00 -1.00  1.00  1.00 -1.00
B_2    1.00 -1.00  1.00 -1.00  1.00
E      2.00  0.00 -2.00  0.00  0.00

     the symmetry operations in each class and the name of the first element:

     E        1
          identity                                               
     2C4      3    4
           90 deg rotation - cart. axis [-1,0,0]                 
     C2       2
          180 deg rotation - cart. axis [1,0,0]                  
     2s_v     5    6
          inv. 180 deg rotation - cart. axis [0,0,1]             
     2s_d     7    8
          inv. 180 deg rotation - cart. axis [0,1,1]             


     Atomic displacements:
     There are    4 irreducible representations

     Representation     1      1 modes -  To be done
     Irreps are as follows:

                     mode #   1
                     (  -0.00000  -0.00000   ) 
                     (  -0.00000  -0.00000   ) 
                     (  -0.00000  -0.00000   ) 
                     (  -1.00000  -0.00000   ) 
                     (  -0.00000  -0.00000   ) 
                     (  -0.00000  -0.00000   ) 

     Representation     2      1 modes -  To be done
     Irreps are as follows:

                     mode #   2
                     (  -1.00000  -0.00000   ) 
                     (  -0.00000  -0.00000   ) 
                     (  -0.00000  -0.00000   ) 
                     (  -0.00000  -0.00000   ) 
                     (  -0.00000  -0.00000   ) 
                     (  -0.00000  -0.00000   ) 

     Representation     3      2 modes -  To be done
     Irreps are as follows:

           mode #   3                           mode #   4
           (  -0.00000  -0.00000   )            (  -0.00000  -0.00000   ) 
           (  -1.00000  -0.00000   )            (  -0.00000  -0.00000   ) 
           (  -0.00000  -0.00000   )            (  -1.00000  -0.00000   ) 
           (  -0.00000  -0.00000   )            (  -0.00000  -0.00000   ) 
           (  -0.00000  -0.00000   )            (  -0.00000  -0.00000   ) 
           (  -0.00000  -0.00000   )            (  -0.00000  -0.00000   ) 

     Representation     4      2 modes -  To be done
     Irreps are as follows:

           mode #   5                           mode #   6
           (  -0.00000  -0.00000   )            (  -0.00000  -0.00000   ) 
           (  -0.00000  -0.00000   )            (  -0.00000  -0.00000   ) 
           (  -0.00000  -0.00000   )            (  -0.00000  -0.00000   ) 
           (  -0.00000  -0.00000   )            (  -0.00000  -0.00000   ) 
           (  -1.00000  -0.00000   )            (  -0.00000  -0.00000   ) 
           (  -0.00000  -0.00000   )            (  -1.00000  -0.00000   ) 


     PHONON       :      6.83s CPU      6.95s WALL

     Reading dVscf from file hchain-dvscf3_
     Reading dynamics matrix from file hchain.dyn3

     Diagonalizing the dynamical matrix

     q = (   -0.333333300   0.000000000   0.000000000 ) 

 **************************************************************************
     freq (    1) =     -18.764412 [THz] =    -625.913412 [cm-1]
     freq (    2) =     -18.764412 [THz] =    -625.913412 [cm-1]
     freq (    3) =      -3.036136 [THz] =    -101.274580 [cm-1]
     freq (    4) =      -3.036136 [THz] =    -101.274580 [cm-1]
     freq (    5) =      11.542511 [THz] =     385.016726 [cm-1]
     freq (    6) =     133.931582 [THz] =    4467.476704 [cm-1]
 **************************************************************************
     electron-phonon interaction (to be used in YAMBO)  ...


     Calculation of q =    0.5000000   0.0000000   0.0000000

     G-vector sticks info
     --------------------
     sticks:   dense  smooth     PW     G-vecs:    dense   smooth      PW
     Sum         661     661    223                17717    17717    3449

     Using Slab Decomposition


     Title: 
     hchain_dvscf                                                               


     bravais-lattice index     =            8
     lattice parameter (alat)  =       5.1779  a.u.
     unit-cell volume          =     517.7850 (a.u.)^3
     number of atoms/cell      =            2
     number of atomic types    =            1
     number of electrons       =         2.00
     number of Kohn-Sham states=           10
     kinetic-energy cutoff     =      40.0000  Ry
     charge density cutoff     =     160.0000  Ry
     Exchange-correlation= PBE
                           (   1   4   3   4   0   0   0)

     celldm(1)=   5.177850  celldm(2)=   1.931304  celldm(3)=   1.931304
     celldm(4)=   0.000000  celldm(5)=   0.000000  celldm(6)=   0.000000

     crystal axes: (cart. coord. in units of alat)
               a(1) = (   1.000000   0.000000   0.000000 )  
               a(2) = (   0.000000   1.931304   0.000000 )  
               a(3) = (   0.000000   0.000000   1.931304 )  

     reciprocal axes: (cart. coord. in units 2 pi/alat)
               b(1) = (  1.000000  0.000000  0.000000 )  
               b(2) = (  0.000000  0.517785  0.000000 )  
               b(3) = (  0.000000  0.000000  0.517785 )  


     PseudoPot. # 1 for H  read from file:
     ./pseudo/H_ONCV_PBE.upf
     MD5 check sum: e96aa7e3e4a958db16958554ea960e2a
     Pseudo is Norm-conserving, Zval =  1.0
     Generated using ONCVPSP code by D. R. Hamann
     Using radial grid of 1166 points,  3 beta functions with: 
                l(1) =   0
                l(2) =   0
                l(3) =   1

     atomic species   valence    mass     pseudopotential
        H              1.00     1.00794     H ( 1.00)

      8 Sym. Ops. (no inversion) found


                                    s                        frac. trans.

      isym =  1     identity                                     

 cryst.   s( 1) = (     1          0          0      )
                  (     0          1          0      )
                  (     0          0          1      )

 cart.    s( 1) = (  1.0000000  0.0000000  0.0000000 )
                  (  0.0000000  1.0000000  0.0000000 )
                  (  0.0000000  0.0000000  1.0000000 )


      isym =  2     180 deg rotation - cart. axis [1,0,0]        

 cryst.   s( 2) = (     1          0          0      )
                  (     0         -1          0      )
                  (     0          0         -1      )

 cart.    s( 2) = (  1.0000000  0.0000000  0.0000000 )
                  (  0.0000000 -1.0000000  0.0000000 )
                  (  0.0000000  0.0000000 -1.0000000 )


      isym =  3      90 deg rotation - cart. axis [-1,0,0]       

 cryst.   s( 3) = (     1          0          0      )
                  (     0          0         -1      )
                  (     0          1          0      )

 cart.    s( 3) = (  1.0000000  0.0000000  0.0000000 )
                  (  0.0000000  0.0000000  1.0000000 )
                  (  0.0000000 -1.0000000  0.0000000 )


      isym =  4      90 deg rotation - cart. axis [1,0,0]        

 cryst.   s( 4) = (     1          0          0      )
                  (     0          0          1      )
                  (     0         -1          0      )

 cart.    s( 4) = (  1.0000000  0.0000000  0.0000000 )
                  (  0.0000000  0.0000000 -1.0000000 )
                  (  0.0000000  1.0000000  0.0000000 )


      isym =  5     inv. 180 deg rotation - cart. axis [0,0,1]   

 cryst.   s( 5) = (     1          0          0      )
                  (     0          1          0      )
                  (     0          0         -1      )

 cart.    s( 5) = (  1.0000000  0.0000000  0.0000000 )
                  (  0.0000000  1.0000000  0.0000000 )
                  (  0.0000000  0.0000000 -1.0000000 )


      isym =  6     inv. 180 deg rotation - cart. axis [0,1,0]   

 cryst.   s( 6) = (     1          0          0      )
                  (     0         -1          0      )
                  (     0          0          1      )

 cart.    s( 6) = (  1.0000000  0.0000000  0.0000000 )
                  (  0.0000000 -1.0000000  0.0000000 )
                  (  0.0000000  0.0000000  1.0000000 )


      isym =  7     inv. 180 deg rotation - cart. axis [0,1,1]   

 cryst.   s( 7) = (     1          0          0      )
                  (     0          0         -1      )
                  (     0         -1          0      )

 cart.    s( 7) = (  1.0000000  0.0000000  0.0000000 )
                  (  0.0000000  0.0000000 -1.0000000 )
                  (  0.0000000 -1.0000000  0.0000000 )


      isym =  8     inv. 180 deg rotation - cart. axis [0,1,-1]  

 cryst.   s( 8) = (     1          0          0      )
                  (     0          0          1      )
                  (     0          1          0      )

 cart.    s( 8) = (  1.0000000  0.0000000  0.0000000 )
                  (  0.0000000  0.0000000  1.0000000 )
                  (  0.0000000  1.0000000  0.0000000 )


     point group C_4v (4mm) 
     there are  5 classes
     the character table:

       E     2C4   C2    2s_v  2s_d 
A_1    1.00  1.00  1.00  1.00  1.00
A_2    1.00  1.00  1.00 -1.00 -1.00
B_1    1.00 -1.00  1.00  1.00 -1.00
B_2    1.00 -1.00  1.00 -1.00  1.00
E      2.00  0.00 -2.00  0.00  0.00

     the symmetry operations in each class and the name of the first element:

     E        1
          identity                                               
     2C4      3    4
           90 deg rotation - cart. axis [-1,0,0]                 
     C2       2
          180 deg rotation - cart. axis [1,0,0]                  
     2s_v     5    6
          inv. 180 deg rotation - cart. axis [0,0,1]             
     2s_d     7    8
          inv. 180 deg rotation - cart. axis [0,1,1]             

   Cartesian axes

     site n.     atom                  positions (alat units)
         1           H   tau(   1) = (   0.0000000   0.0000000   0.0000000  )
         2           H   tau(   2) = (   0.2700730   0.0000000   0.0000000  )

   Crystallographic axes

     site n.     atom                  positions (cryst. coord.)
         1           H   tau(   1) = (  0.0000000  0.0000000  0.0000000  )
         2           H   tau(   2) = (  0.2700730  0.0000000  0.0000000  )

     number of k points=     8
                       cart. coord. in units 2pi/alat
        k(    1) = (   0.0000000   0.0000000   0.0000000), wk =   0.3333333
        k(    2) = (   0.5000000   0.0000000   0.0000000), wk =   0.0000000
        k(    3) = (   0.1666667   0.0000000   0.0000000), wk =   0.6666667
        k(    4) = (   0.6666667   0.0000000   0.0000000), wk =   0.0000000
        k(    5) = (   0.3333333   0.0000000   0.0000000), wk =   0.6666667
        k(    6) = (   0.8333333   0.0000000   0.0000000), wk =   0.0000000
        k(    7) = (  -0.5000000   0.0000000   0.0000000), wk =   0.3333333
        k(    8) = (   0.0000000   0.0000000   0.0000000), wk =   0.0000000

                       cryst. coord.
        k(    1) = (   0.0000000   0.0000000   0.0000000), wk =   0.3333333
        k(    2) = (   0.5000000   0.0000000   0.0000000), wk =   0.0000000
        k(    3) = (   0.1666667   0.0000000   0.0000000), wk =   0.6666667
        k(    4) = (   0.6666667   0.0000000   0.0000000), wk =   0.0000000
        k(    5) = (   0.3333333   0.0000000   0.0000000), wk =   0.6666667
        k(    6) = (   0.8333333   0.0000000   0.0000000), wk =   0.0000000
        k(    7) = (  -0.5000000   0.0000000   0.0000000), wk =   0.3333333
        k(    8) = (   0.0000000   0.0000000   0.0000000), wk =   0.0000000

     Dense  grid:    17717 G-vectors     FFT dimensions: (  24,  45,  45)

     Dynamical RAM for                 wfc:       0.34 MB

     Dynamical RAM for     wfc (w. buffer):       0.34 MB

     Dynamical RAM for           str. fact:       0.27 MB

     Dynamical RAM for           local pot:       0.01 MB

     Dynamical RAM for          nlocal pot:       0.34 MB

     Dynamical RAM for                qrad:       0.18 MB

     Dynamical RAM for          rho,v,vnew:       1.92 MB

     Dynamical RAM for           G-vectors:       1.15 MB

     Dynamical RAM for          h,s,v(r/c):       0.07 MB

     Dynamical RAM for          <psi|beta>:       0.00 MB

     Dynamical RAM for                 psi:       1.35 MB

     Dynamical RAM for                hpsi:       1.35 MB

     Dynamical RAM for      wfcinit/wfcrot:       0.68 MB

     Estimated static dynamical RAM per process >       6.60 MB

     Estimated max dynamical RAM per process >       9.38 MB

     The potential is recalculated from file :
     ./_ph0/hchain.save/charge-density

     Starting wfcs are    2 atomic +    8 random wfcs

     Band Structure Calculation
     Davidson diagonalization with overlap

     Computing kpt #:     1
     total cpu time spent up to now is        5.1 secs

     Computing kpt #:     2
     total cpu time spent up to now is        5.3 secs

     Computing kpt #:     3
     total cpu time spent up to now is        5.5 secs

     Computing kpt #:     4
     total cpu time spent up to now is        5.7 secs

     Computing kpt #:     5
     total cpu time spent up to now is        5.9 secs

     Computing kpt #:     6
     total cpu time spent up to now is        6.0 secs

     Computing kpt #:     7
     total cpu time spent up to now is        6.2 secs

     Computing kpt #:     8
     total cpu time spent up to now is        6.4 secs

     ethr =  5.00E-10,  avg # of iterations = 14.4

     total cpu time spent up to now is        6.4 secs

     End of band structure calculation

          k = 0.0000 0.0000 0.0000 (  2231 PWs)   bands (ev):

   -10.9272   0.0148   2.5265   2.5265   3.8947   7.1665   8.4135   8.4135
     8.6092   9.9730

     occupation numbers 
     1.0000   0.0000   0.0000   0.0000   0.0000   0.0000   0.0000   0.0000
     0.0000   0.0000

          k = 0.5000 0.0000 0.0000 (  2218 PWs)   bands (ev):

    -9.2231  -0.1223   4.8178   6.1243   7.0046   7.0046   8.0670   8.0670
     8.7492   9.0600

     occupation numbers 
     0.0000   0.0000   0.0000   0.0000   0.0000   0.0000   0.0000   0.0000
     0.0000   0.0000

          k = 0.1667 0.0000 0.0000 (  2183 PWs)   bands (ev):

   -10.5818   0.4587   3.0783   3.0783   4.4509   5.6563   8.3715   8.9634
     8.9634   9.1650

     occupation numbers 
     1.0000   0.0000   0.0000   0.0000   0.0000   0.0000   0.0000   0.0000
     0.0000   0.0000

          k = 0.6667 0.0000 0.0000 (  2214 PWs)   bands (ev):

    -9.7521   0.8369   3.3067   4.7242   4.7242   6.1187   9.0380  10.1667
    10.5233  10.5233

     occupation numbers 
     0.0000   0.0000   0.0000   0.0000   0.0000   0.0000   0.0000   0.0000
     0.0000   0.0000

          k = 0.3333 0.0000 0.0000 (  2214 PWs)   bands (ev):

    -9.7521   0.8369   3.3067   4.7242   4.7242   6.1187   9.0380  10.1667
    10.5233  10.5233

     occupation numbers 
     1.0000   0.0000   0.0000   0.0000   0.0000   0.0000   0.0000   0.0000
     0.0000   0.0000

          k = 0.8333 0.0000 0.0000 (  2183 PWs)   bands (ev):

   -10.5818   0.4587   3.0783   3.0783   4.4509   5.6563   8.3715   8.9634
     8.9634   9.1650

     occupation numbers 
     0.0000   0.0000   0.0000   0.0000   0.0000   0.0000   0.0000   0.0000
     0.0000   0.0000

          k =-0.5000 0.0000 0.0000 (  2218 PWs)   bands (ev):

    -9.2231  -0.1223   4.8178   6.1243   7.0046   7.0046   8.0670   8.0670
     8.7492   9.0600

     occupation numbers 
     1.0000   0.0000   0.0000   0.0000   0.0000   0.0000   0.0000   0.0000
     0.0000   0.0000

          k = 0.0000 0.0000 0.0000 (  2231 PWs)   bands (ev):

   -10.9272   0.0148   2.5265   2.5265   3.8947   7.1665   8.4135   8.4135
     8.6092   9.9730

     occupation numbers 
     0.0000   0.0000   0.0000   0.0000   0.0000   0.0000   0.0000   0.0000
     0.0000   0.0000

     highest occupied, lowest unoccupied level (ev):    -9.2231   -0.1223

     Writing config to output data dir ./_ph0/hchain.save/

     hchain_dvscf                                                               

     bravais-lattice index     =            8
     lattice parameter (alat)  =       5.1779  a.u.
     unit-cell volume          =     517.7850 (a.u.)^3
     number of atoms/cell      =            2
     number of atomic types    =            1
     kinetic-energy cut-off    =      40.0000  Ry
     charge density cut-off    =     160.0000  Ry
     convergence threshold     =      1.0E-12
     beta                      =       0.7000
     number of iterations used =            4
     Exchange-correlation= PBE
                           (   1   4   3   4   0   0   0)


     celldm(1)=    5.17785  celldm(2)=    1.93130  celldm(3)=    1.93130
     celldm(4)=    0.00000  celldm(5)=    0.00000  celldm(6)=    0.00000

     crystal axes: (cart. coord. in units of alat)
               a(1) = (  1.0000  0.0000  0.0000 )  
               a(2) = (  0.0000  1.9313  0.0000 )  
               a(3) = (  0.0000  0.0000  1.9313 )  

     reciprocal axes: (cart. coord. in units 2 pi/alat)
               b(1) = (  1.0000  0.0000  0.0000 )  
               b(2) = (  0.0000  0.5178  0.0000 )  
               b(3) = (  0.0000  0.0000  0.5178 )  


     Atoms inside the unit cell: 

     Cartesian axes

     site n.  atom      mass           positions (alat units)
        1     H    1.0079   tau(    1) = (    0.00000    0.00000    0.00000  )
        2     H    1.0079   tau(    2) = (    0.27007    0.00000    0.00000  )

     Computing dynamical matrix for 
                    q = (   0.5000000   0.0000000   0.0000000 )

      9 Sym.Ops. (with q -> -q+G )

                                    s                        frac. trans.

      isym =  1     identity                                     

 cryst.   s( 1) = (     1          0          0      )
                  (     0          1          0      )
                  (     0          0          1      )

 cart.    s( 1) = (  1.0000000  0.0000000  0.0000000 )
                  (  0.0000000  1.0000000  0.0000000 )
                  (  0.0000000  0.0000000  1.0000000 )


      isym =  2     180 deg rotation - cart. axis [1,0,0]        

 cryst.   s( 2) = (     1          0          0      )
                  (     0         -1          0      )
                  (     0          0         -1      )

 cart.    s( 2) = (  1.0000000  0.0000000  0.0000000 )
                  (  0.0000000 -1.0000000  0.0000000 )
                  (  0.0000000  0.0000000 -1.0000000 )


      isym =  3      90 deg rotation - cart. axis [-1,0,0]       

 cryst.   s( 3) = (     1          0          0      )
                  (     0          0         -1      )
                  (     0          1          0      )

 cart.    s( 3) = (  1.0000000  0.0000000  0.0000000 )
                  (  0.0000000  0.0000000  1.0000000 )
                  (  0.0000000 -1.0000000  0.0000000 )


      isym =  4      90 deg rotation - cart. axis [1,0,0]        

 cryst.   s( 4) = (     1          0          0      )
                  (     0          0          1      )
                  (     0         -1          0      )

 cart.    s( 4) = (  1.0000000  0.0000000  0.0000000 )
                  (  0.0000000  0.0000000 -1.0000000 )
                  (  0.0000000  1.0000000  0.0000000 )


      isym =  5     inv. 180 deg rotation - cart. axis [0,0,1]   

 cryst.   s( 5) = (     1          0          0      )
                  (     0          1          0      )
                  (     0          0         -1      )

 cart.    s( 5) = (  1.0000000  0.0000000  0.0000000 )
                  (  0.0000000  1.0000000  0.0000000 )
                  (  0.0000000  0.0000000 -1.0000000 )


      isym =  6     inv. 180 deg rotation - cart. axis [0,1,0]   

 cryst.   s( 6) = (     1          0          0      )
                  (     0         -1          0      )
                  (     0          0          1      )

 cart.    s( 6) = (  1.0000000  0.0000000  0.0000000 )
                  (  0.0000000 -1.0000000  0.0000000 )
                  (  0.0000000  0.0000000  1.0000000 )


      isym =  7     inv. 180 deg rotation - cart. axis [0,1,1]   

 cryst.   s( 7) = (     1          0          0      )
                  (     0          0         -1      )
                  (     0         -1          0      )

 cart.    s( 7) = (  1.0000000  0.0000000  0.0000000 )
                  (  0.0000000  0.0000000 -1.0000000 )
                  (  0.0000000 -1.0000000  0.0000000 )


      isym =  8     inv. 180 deg rotation - cart. axis [0,1,-1]  

 cryst.   s( 8) = (     1          0          0      )
                  (     0          0          1      )
                  (     0          1          0      )

 cart.    s( 8) = (  1.0000000  0.0000000  0.0000000 )
                  (  0.0000000  0.0000000  1.0000000 )
                  (  0.0000000  1.0000000  0.0000000 )


     This transformation sends q -> -q+G

      isym =  9     identity                                     

 cryst.   s( 9) = (     1          0          0      )
                  (     0          1          0      )
                  (     0          0          1      )

 cart.    s( 9) = (  1.0000000  0.0000000  0.0000000 )
                  (  0.0000000  1.0000000  0.0000000 )
                  (  0.0000000  0.0000000  1.0000000 )


     G cutoff =  108.6574  (  17717 G-vectors)     FFT grid: ( 24, 45, 45)
     number of k points=     8
                       cart. coord. in units 2pi/alat
        k(    1) = (   0.0000000   0.0000000   0.0000000), wk =   0.3333333
        k(    2) = (   0.5000000   0.0000000   0.0000000), wk =   0.0000000
        k(    3) = (   0.1666667   0.0000000   0.0000000), wk =   0.6666667
        k(    4) = (   0.6666667   0.0000000   0.0000000), wk =   0.0000000
        k(    5) = (   0.3333333   0.0000000   0.0000000), wk =   0.6666667
        k(    6) = (   0.8333333   0.0000000   0.0000000), wk =   0.0000000
        k(    7) = (  -0.5000000   0.0000000   0.0000000), wk =   0.3333333
        k(    8) = (   0.0000000   0.0000000   0.0000000), wk =   0.0000000

                       cryst. coord.
        k(    1) = (   0.0000000   0.0000000   0.0000000), wk =   0.3333333
        k(    2) = (   0.5000000   0.0000000   0.0000000), wk =   0.0000000
        k(    3) = (   0.1666667   0.0000000   0.0000000), wk =   0.6666667
        k(    4) = (   0.6666667   0.0000000   0.0000000), wk =   0.0000000
        k(    5) = (   0.3333333   0.0000000   0.0000000), wk =   0.6666667
        k(    6) = (   0.8333333   0.0000000   0.0000000), wk =   0.0000000
        k(    7) = (  -0.5000000   0.0000000   0.0000000), wk =   0.3333333
        k(    8) = (   0.0000000   0.0000000   0.0000000), wk =   0.0000000

     PseudoPot. # 1 for H  read from file:
     ./pseudo/H_ONCV_PBE.upf
     MD5 check sum: e96aa7e3e4a958db16958554ea960e2a
     Pseudo is Norm-conserving, Zval =  1.0
     Generated using ONCVPSP code by D. R. Hamann
     Using radial grid of 1166 points,  3 beta functions with: 
                l(1) =   0
                l(2) =   0
                l(3) =   1

     point group C_4v (4mm) 
     there are  5 classes
     the character table:

       E     2C4   C2    2s_v  2s_d 
A_1    1.00  1.00  1.00  1.00  1.00
A_2    1.00  1.00  1.00 -1.00 -1.00
B_1    1.00 -1.00  1.00  1.00 -1.00
B_2    1.00 -1.00  1.00 -1.00  1.00
E      2.00  0.00 -2.00  0.00  0.00

     the symmetry operations in each class and the name of the first element:

     E        1
          identity                                               
     2C4      3    4
           90 deg rotation - cart. axis [-1,0,0]                 
     C2       2
          180 deg rotation - cart. axis [1,0,0]                  
     2s_v     5    6
          inv. 180 deg rotation - cart. axis [0,0,1]             
     2s_d     7    8
          inv. 180 deg rotation - cart. axis [0,1,1]             


     Atomic displacements:
     There are    4 irreducible representations

     Representation     1      1 modes -  To be done
     Irreps are as follows:

                     mode #   1
                     (  -0.00000  -0.00000   ) 
                     (  -0.00000  -0.00000   ) 
                     (  -0.00000  -0.00000   ) 
                     (  -1.00000  -0.00000   ) 
                     (  -0.00000  -0.00000   ) 
                     (  -0.00000  -0.00000   ) 

     Representation     2      1 modes -  To be done
     Irreps are as follows:

                     mode #   2
                     (  -1.00000  -0.00000   ) 
                     (  -0.00000  -0.00000   ) 
                     (  -0.00000  -0.00000   ) 
                     (  -0.00000  -0.00000   ) 
                     (  -0.00000  -0.00000   ) 
                     (  -0.00000  -0.00000   ) 

     Representation     3      2 modes -  To be done
     Irreps are as follows:

           mode #   3                           mode #   4
           (  -0.00000  -0.00000   )            (  -0.00000  -0.00000   ) 
           (  -1.00000  -0.00000   )            (  -0.00000  -0.00000   ) 
           (  -0.00000  -0.00000   )            (  -1.00000  -0.00000   ) 
           (  -0.00000  -0.00000   )            (  -0.00000  -0.00000   ) 
           (  -0.00000  -0.00000   )            (  -0.00000  -0.00000   ) 
           (  -0.00000  -0.00000   )            (  -0.00000  -0.00000   ) 

     Representation     4      2 modes -  To be done
     Irreps are as follows:

           mode #   5                           mode #   6
           (  -0.00000  -0.00000   )            (  -0.00000  -0.00000   ) 
           (  -0.00000  -0.00000   )            (  -0.00000  -0.00000   ) 
           (  -0.00000  -0.00000   )            (  -0.00000  -0.00000   ) 
           (  -0.00000  -0.00000   )            (  -0.00000  -0.00000   ) 
           (  -1.00000  -0.00000   )            (  -0.00000  -0.00000   ) 
           (  -0.00000  -0.00000   )            (  -1.00000  -0.00000   ) 


     PHONON       :      9.33s CPU      9.49s WALL

     Reading dVscf from file hchain-dvscf4_
     Reading dynamics matrix from file hchain.dyn4

     Diagonalizing the dynamical matrix

     q = (    0.500000000   0.000000000   0.000000000 ) 

 **************************************************************************
     freq (    1) =     -18.345243 [THz] =    -611.931451 [cm-1]
     freq (    2) =     -18.345243 [THz] =    -611.931451 [cm-1]
     freq (    3) =      -3.888038 [THz] =    -129.690986 [cm-1]
     freq (    4) =      -3.888038 [THz] =    -129.690986 [cm-1]
     freq (    5) =      13.217771 [THz] =     440.897394 [cm-1]
     freq (    6) =     134.066216 [THz] =    4471.967618 [cm-1]
 **************************************************************************
     electron-phonon interaction (to be used in YAMBO)  ...


     PHONON       :      9.94s CPU     10.11s WALL

     INITIALIZATION: 
     phq_setup    :      0.16s CPU      0.18s WALL (       4 calls)
     phq_init     :      0.43s CPU      0.44s WALL (       4 calls)

     phq_init     :      0.43s CPU      0.44s WALL (       4 calls)
     init_vloc    :      0.03s CPU      0.03s WALL (       5 calls)
     init_us_1    :      0.01s CPU      0.01s WALL (       5 calls)
     init_us_2    :      0.05s CPU      0.05s WALL (     136 calls)




     dvqpsi_us    :      1.50s CPU      1.53s WALL (     120 calls)
                                        0.00s GPU  (     120 calls)
     apply_dpot_b :      1.40s CPU      1.42s WALL (     120 calls)
     vpsifft      :      1.40s CPU      1.42s WALL (     120 calls)

     dvqpsi_us    :      1.50s CPU      1.53s WALL (     120 calls)
                                        0.00s GPU  (     120 calls)
     dvqpsi_us_on :      0.03s CPU      0.03s WALL (     120 calls)


     h_psi        :      5.39s CPU      5.45s WALL (     593 calls)

     h_psi        :      5.39s CPU      5.45s WALL (     593 calls)
     add_vuspsi   :      0.04s CPU      0.04s WALL (     593 calls)



      Electron-phonon coupling
     elphon       :      2.99s CPU      3.05s WALL (       4 calls)
     elphel       :      2.97s CPU      3.03s WALL (      16 calls)

      General routines
     calbec       :      0.06s CPU      0.06s WALL (     673 calls)
     fft          :      0.04s CPU      0.04s WALL (      62 calls)
     ffts         :      0.06s CPU      0.07s WALL (     120 calls)
     fftw         :      6.08s CPU      6.16s WALL (   13910 calls)
     davcio       :      0.02s CPU      0.02s WALL (     244 calls)

      Additional routines
     h_psi_bgrp   :      5.39s CPU      5.46s WALL (     593 calls)
     h_psi        :      5.39s CPU      5.45s WALL (     593 calls)
     h_psi:pot    :      5.34s CPU      5.40s WALL (     593 calls)
     h_psi:calbec :      0.05s CPU      0.05s WALL (     593 calls)


     PHONON       :      9.94s CPU     10.11s WALL


   This run was terminated on:  17:57:31  21Dec2022            

=------------------------------------------------------------------------------=
   JOB DONE.
=------------------------------------------------------------------------------=
