#                                                           
#  ____  ____     _       ____    ____  ______      ___     
# |_  _||_  _|   / \     |_   \  /   _||_   _ \   ."   `.   
#   \ \  / /    / _ \      |   \/   |    | |_) | /  .-.  \  
#    \ \/ /    / ___ \     | |\  /| |    |  __". | |   | |  
#    _|  |_  _/ /   \ \_  _| |_\/_| |_  _| |__) |\  `-"  /  
#   |______||____| |____||_____||_____||_______/  `.___."   
#                                                           
#                                                           
#                                                           
#        Version 4.3.0 Revision 15169 Hash 3ae439d          
#                   MPI+SLK+OpenMP Build                    
#                http://www.yambo-code.org                  
#
#
 CRYSTAL
 PRIMVEC
  2.495797  0.000000  0.000000
 -1.247898  2.161424  0.000000
  0.000000  0.000000  6.443175
 PRIMCOORD
   4   1
         5   1.24790   0.72047   0.00000
         5  -1.24790  -0.72047   3.22159
         7  -1.24790  -0.72047   0.00000
         7   1.24790   0.72047   3.22159
 BEGIN_BLOCK_DATAGRID_3D
 Generated with YPP  4   3   0
 BEGIN_DATAGRID_3D
   16   16   36
  0.00      0.00      0.00    
  2.495797  0.000000  0.000000
 -1.247898  2.161424  0.000000
  0.000000  0.000000  6.443175
  0.121284
  0.129643
  0.156528
  0.207066
  0.285514
  0.388232
  0.493632
  0.561719
  0.561720
  0.493633
  0.388233
  0.285514
  0.207066
  0.156528
  0.129643
  0.121284
  0.129643
  0.129643
  0.143950
  0.173678
  0.221779
  0.285400
  0.349163
  0.393416
  0.408472
  0.393416
  0.349163
  0.285401
  0.221779
  0.173678
  0.143950
  0.129643
  0.156528
  0.150821
  0.156528
  0.173678
  0.203204
  0.240787
  0.268479
  0.274136
  0.269627
  0.269626
  0.274135
  0.268479
  0.240787
  0.203204
  0.173678
  0.156528
  0.207066
  0.200003
  0.200003
  0.207067
  0.221779
  0.240787
  0.241822
  0.209804
  0.172149
  0.157593
  0.172148
  0.209803
  0.241822
  0.240787
  0.221778
  0.207066
  0.285513
  0.286548
  0.286990
  0.286548
  0.285515
  0.285400
  0.268479
  0.209803
  0.139734
  0.102066
  0.102065
  0.139732
  0.209803
  0.268478
  0.285399
  0.285513
  0.388231
  0.419115
  0.439087
  0.439088
  0.419116
  0.388232
  0.349162
  0.274135
  0.172149
  0.102066
   0.08112
  0.102064
  0.172148
  0.274135
  0.349161
  0.388231
  0.493631
  0.583472
  0.652025
  0.675940
  0.652025
  0.583473
  0.493632
  0.393415
  0.269626
  0.157593
  0.102067
  0.102066
  0.157592
  0.269626
  0.393415
  0.493631
  0.561719
  0.723394
  0.845416
  0.892255
  0.892251
  0.845410
  0.723392
  0.561717
  0.408470
  0.269626
  0.172150
  0.139735
  0.172149
  0.269627
  0.408471
  0.561719
  0.561719
  0.777657
  0.945556
  0.984600
  0.975690
  0.984585
  0.945545
  0.777652
  0.561716
  0.393414
  0.274135
  0.209804
  0.209805
  0.274136
  0.393417
  0.561719
  0.493633
  0.723395
  0.945553
  1.000000
  0.959482
  0.959476
  0.999989
  0.945546
  0.723390
  0.493629
  0.349160
  0.268478
  0.241822
  0.268480
  0.349163
  0.493633
  0.388233
  0.583474
  0.845412
  0.984588
  0.959474
  0.929819
  0.959481
  0.984593
  0.845411
  0.583469
  0.388229
  0.285398
  0.240786
  0.240787
  0.285401
  0.388233
  0.285515
  0.419117
  0.652025
  0.892247
  0.975678
  0.959472
  0.959483
  0.975697
  0.892254
  0.652022
  0.419113
  0.285512
  0.221778
  0.203204
  0.221780
  0.285515
  0.207067
  0.286549
  0.439088
  0.675938
  0.892247
  0.984584
  0.999994
  0.984598
  0.892256
  0.675938
  0.439085
  0.286546
  0.207065
  0.173678
  0.173678
  0.207067
  0.156529
  0.200003
  0.286991
  0.439088
  0.652024
  0.845411
  0.945549
  0.945553
  0.845416
  0.652025
  0.439086
  0.286989
  0.200002
  0.156528
  0.143950
  0.156529
  0.129643
  0.150821
  0.200003
  0.286548
  0.419116
  0.583473
  0.723394
  0.777657
  0.723395
  0.583474
  0.419115
  0.286547
  0.200002
  0.150820
  0.129643
  0.129643
  0.121284
  0.129643
  0.156528
  0.207066
  0.285514
  0.388232
  0.493632
  0.561719
  0.561720
  0.493633
  0.388233
  0.285514
  0.207066
  0.156528
  0.129643
  0.121284
  0.113574
  0.121238
  0.145655
  0.191253
  0.261561
  0.352674
  0.445677
  0.505918
  0.505919
  0.445679
  0.352676
  0.261562
  0.191253
  0.145655
  0.121237
  0.113574
  0.121237
  0.121237
  0.134258
  0.161382
  0.204896
  0.262577
  0.321150
  0.362714
  0.377226
  0.362715
  0.321152
  0.262579
  0.204897
  0.161382
  0.134258
  0.121237
  0.145655
  0.140530
  0.145655
  0.161382
  0.188393
  0.223453
  0.251738
  0.260660
  0.258816
  0.258816
  0.260660
  0.251740
  0.223455
  0.188394
  0.161382
  0.145655
  0.191253
  0.184781
  0.184781
  0.191253
  0.204896
  0.223453
  0.229109
  0.205281
  0.172377
  0.158812
  0.172376
  0.205281
  0.229110
  0.223454
  0.204896
  0.191253
  0.261561
  0.261983
  0.262250
  0.261983
  0.261562
  0.262577
  0.251738
  0.205280
  0.142716
  0.105657
  0.105656
  0.142715
  0.205281
  0.251739
  0.262578
  0.261561
  0.352674
  0.378616
  0.395652
  0.395653
  0.378617
  0.352674
  0.321150
  0.260659
  0.172376
  0.105657
   0.08415
  0.105655
  0.172375
  0.260659
  0.321150
  0.352674
  0.445676
  0.522942
  0.584436
  0.606695
  0.584436
  0.522942
  0.445676
  0.362712
  0.258814
  0.158811
  0.105656
  0.105655
  0.158809
  0.258815
  0.362714
  0.445676
  0.505917
  0.647301
  0.764121
  0.816198
  0.816196
  0.764118
  0.647300
  0.505916
  0.377223
  0.258814
  0.172376
  0.142715
  0.172376
  0.258815
  0.377225
  0.505917
  0.505918
  0.696018
  0.862328
  0.922218
  0.924402
  0.922211
  0.862322
  0.696016
  0.505916
  0.362712
  0.260659
  0.205281
  0.205282
  0.260661
  0.362715
  0.505918
  0.445679
  0.647302
  0.862325
  0.944923
  0.926234
  0.926232
  0.944919
  0.862323
  0.647299
  0.445675
  0.321150
  0.251739
  0.229111
  0.251741
  0.321153
  0.445679
  0.352677
  0.522944
  0.764118
  0.922208
  0.926224
  0.903987
  0.926232
  0.922214
  0.764118
  0.522941
  0.352674
  0.262578
  0.223455
  0.223456
  0.262580
  0.352677
  0.261564
  0.378618
  0.584436
  0.816191
  0.924387
  0.926219
  0.926228
  0.924402
  0.816197
  0.584435
  0.378616
  0.261561
  0.204897
  0.188395
  0.204898
  0.261564
  0.191254
  0.261984
  0.395653
  0.606693
  0.816190
  0.922203
  0.944914
  0.922213
  0.816198
  0.606694
  0.395651
  0.261982
  0.191253
  0.161383
  0.161383
  0.191254
  0.145656
  0.184781
  0.262251
  0.395652
  0.584435
  0.764116
  0.862322
  0.862324
  0.764121
  0.584437
  0.395652
  0.262250
  0.184780
  0.145655
  0.134259
  0.145656
  0.121238
  0.140530
  0.184781
  0.261983
  0.378617
  0.522942
  0.647301
  0.696019
  0.647303
  0.522944
  0.378617
  0.261983
  0.184780
  0.140530
  0.121238
  0.121238
  0.113574
  0.121238
  0.145655
  0.191253
  0.261561
  0.352674
  0.445677
  0.505918
  0.505919
  0.445679
  0.352676
  0.261562
  0.191253
  0.145655
  0.121237
  0.113574
   0.09376
   0.09967
  0.118110
  0.151909
  0.203072
  0.267524
  0.331845
  0.373223
  0.373224
  0.331847
  0.267526
  0.203073
  0.151910
  0.118110
   0.09967
   0.09376
   0.09967
   0.09967
  0.109533
  0.130264
  0.162539
  0.205327
  0.250330
  0.283782
  0.295956
  0.283783
  0.250332
  0.205329
  0.162541
  0.130265
  0.109533
   0.09967
  0.118110
  0.114346
  0.118110
  0.130264
  0.150683
  0.177967
  0.204996
  0.220568
  0.225296
  0.225296
  0.220570
  0.204998
  0.177969
  0.150684
  0.130265
  0.118110
  0.151909
  0.146835
  0.146835
  0.151909
  0.162540
  0.177967
  0.190682
  0.186339
  0.169917
  0.161668
  0.169917
  0.186341
  0.190683
  0.177969
  0.162540
  0.151909
  0.203072
  0.202544
  0.202515
  0.202545
  0.203073
  0.205327
  0.204996
  0.186339
  0.149344
  0.121418
  0.121417
  0.149345
  0.186340
  0.204997
  0.205328
  0.203072
  0.267524
  0.283310
  0.293955
  0.293956
  0.283311
  0.267524
  0.250330
  0.220568
  0.169916
  0.121417
  0.102701
  0.121417
  0.169917
  0.220569
  0.250331
  0.267524
  0.331844
  0.380730
  0.422448
  0.438662
  0.422449
  0.380731
  0.331845
  0.283781
  0.225294
  0.161667
  0.121417
  0.121417
  0.161667
  0.225296
  0.283782
  0.331844
  0.373221
  0.465750
  0.555578
  0.606560
  0.606560
  0.555579
  0.465750
  0.373221
  0.295954
  0.225295
  0.169917
  0.149345
  0.169917
  0.225296
  0.295955
  0.373221
  0.373222
  0.499658
  0.637319
  0.723694
  0.747320
  0.723693
  0.637320
  0.499659
  0.373221
  0.283782
  0.220569
  0.186341
  0.186341
  0.220570
  0.283783
  0.373222
  0.331846
  0.465750
  0.637319
  0.760287
  0.799013
  0.799013
  0.760288
  0.637320
  0.465750
  0.331845
  0.250331
  0.204998
  0.190685
  0.204999
  0.250333
  0.331846
  0.267526
  0.380731
  0.555578
  0.723690
  0.799009
  0.810049
  0.799012
  0.723693
  0.555579
  0.380730
  0.267525
  0.205329
  0.177970
  0.177971
  0.205330
  0.267526
  0.203074
  0.283312
  0.422448
  0.606557
  0.747314
  0.799007
  0.799010
  0.747319
  0.606560
  0.422448
  0.283311
  0.203073
  0.162541
  0.150686
  0.162542
  0.203074
  0.151911
  0.202545
  0.293956
  0.438660
  0.606557
  0.723689
  0.760285
  0.723693
  0.606560
  0.438661
  0.293955
  0.202544
  0.151910
  0.130266
  0.130266
  0.151911
  0.118111
  0.146836
  0.202515
  0.293955
  0.422448
  0.555578
  0.637319
  0.637320
  0.555580
  0.422449
  0.293955
  0.202514
  0.146835
  0.118111
  0.109534
  0.118111
   0.09967
  0.114346
  0.146835
  0.202544
  0.283310
  0.380730
  0.465751
  0.499660
  0.465752
  0.380732
  0.283312
  0.202544
  0.146835
  0.114345
   0.09967
   0.09967
   0.09376
   0.09967
  0.118110
  0.151909
  0.203072
  0.267524
  0.331845
  0.373223
  0.373224
  0.331847
  0.267526
  0.203073
  0.151910
  0.118110
   0.09967
   0.09376
   0.06919
   0.07308
   0.08496
  0.106059
  0.136999
  0.174641
  0.210990
  0.233870
  0.233871
  0.210991
  0.174642
  0.136999
  0.106059
   0.08496
   0.07308
   0.06919
   0.07308
   0.07308
   0.07936
   0.09299
  0.113353
  0.139444
  0.167287
  0.188698
  0.196692
  0.188699
  0.167289
  0.139445
  0.113354
   0.09299
   0.07936
   0.07308
   0.08496
   0.08265
   0.08496
   0.09299
  0.106274
  0.123639
  0.143220
  0.158861
  0.166868
  0.166869
  0.158862
  0.143221
  0.123640
  0.106274
   0.09299
   0.08496
  0.106060
  0.102520
  0.102520
  0.106060
  0.113354
  0.123639
  0.135754
  0.143607
  0.144543
  0.143880
  0.144544
  0.143608
  0.135755
  0.123640
  0.113354
  0.106060
  0.136999
  0.135850
  0.135603
  0.135850
  0.137000
  0.139444
  0.143220
  0.143607
  0.135695
  0.126719
  0.126719
  0.135695
  0.143608
  0.143221
  0.139444
  0.136999
  0.174641
  0.182061
  0.187125
  0.187125
  0.182062
  0.174642
  0.167288
  0.158860
  0.144543
  0.126719
  0.118287
  0.126719
  0.144544
  0.158861
  0.167287
  0.174641
  0.210989
  0.234701
  0.254852
  0.262981
  0.254853
  0.234702
  0.210991
  0.188698
  0.166867
  0.143879
  0.126719
  0.126719
  0.143880
  0.166868
  0.188698
  0.210989
  0.233869
  0.279510
  0.326036
  0.356132
  0.356133
  0.326037
  0.279512
  0.233870
  0.196691
  0.166868
  0.144544
  0.135696
  0.144544
  0.166868
  0.196691
  0.233869
  0.233869
  0.297336
  0.372831
  0.435267
  0.458914
  0.435268
  0.372834
  0.297337
  0.233870
  0.188698
  0.158862
  0.143609
  0.143609
  0.158862
  0.188699
  0.233869
  0.210990
  0.279511
  0.372831
  0.465417
  0.519819
  0.519820
  0.465419
  0.372833
  0.279512
  0.210990
  0.167289
  0.143222
  0.135756
  0.143222
  0.167289
  0.210990
  0.174642
  0.234701
  0.326035
  0.435266
  0.519818
  0.549407
  0.519820
  0.435268
  0.326036
  0.234701
  0.174642
  0.139446
  0.123641
  0.123642
  0.139446
  0.174642
  0.137000
  0.182061
  0.254851
  0.356130
  0.458912
  0.519819
  0.519819
  0.458914
  0.356132
  0.254852
  0.182061
  0.137000
  0.113355
  0.106275
  0.113355
  0.137000
  0.106060
  0.135850
  0.187124
  0.262979
  0.356131
  0.435267
  0.465419
  0.435268
  0.356132
  0.262980
  0.187124
  0.135850
  0.106060
   0.09299
   0.09299
  0.106060
   0.08496
  0.102520
  0.135603
  0.187124
  0.254851
  0.326036
  0.372834
  0.372834
  0.326037
  0.254852
  0.187124
  0.135602
  0.102520
   0.08496
   0.07936
   0.08496
   0.07308
   0.08265
  0.102520
  0.135849
  0.182061
  0.234701
  0.279512
  0.297338
  0.279513
  0.234702
  0.182061
  0.135850
  0.102520
   0.08265
   0.07308
   0.07308
   0.06919
   0.07308
   0.08496
  0.106059
  0.136999
  0.174641
  0.210990
  0.233870
  0.233871
  0.210991
  0.174642
  0.136999
  0.106059
   0.08496
   0.07308
   0.06919
   0.04674
   0.04895
   0.05568
   0.06721
   0.08331
  0.102212
  0.120002
  0.131040
  0.131040
  0.120002
  0.102212
   0.08331
   0.06721
   0.05568
   0.04895
   0.04674
   0.04895
   0.04895
   0.05246
   0.06010
   0.07146
   0.08539
   0.09971
  0.110691
  0.114829
  0.110691
   0.09971
   0.08539
   0.07146
   0.06010
   0.05246
   0.04895
   0.05568
   0.05439
   0.05568
   0.06010
   0.06766
   0.07751
   0.08839
   0.09780
  0.103260
  0.103260
   0.09780
   0.08839
   0.07751
   0.06766
   0.06010
   0.05568
   0.06721
   0.06516
   0.06516
   0.06721
   0.07146
   0.07751
   0.08467
   0.09137
   0.09600
   0.09769
   0.09600
   0.09137
   0.08467
   0.07751
   0.07146
   0.06721
   0.08331
   0.08227
   0.08199
   0.08227
   0.08331
   0.08539
   0.08839
   0.09137
   0.09323
   0.09390
   0.09390
   0.09323
   0.09137
   0.08839
   0.08539
   0.08331
  0.102212
  0.105100
  0.107128
  0.107128
  0.105101
  0.102213
   0.09971
   0.09780
   0.09600
   0.09390
   0.09276
   0.09390
   0.09600
   0.09780
   0.09971
  0.102212
  0.120001
  0.129908
  0.138006
  0.141157
  0.138007
  0.129909
  0.120002
  0.110691
  0.103260
   0.09769
   0.09390
   0.09390
   0.09769
  0.103259
  0.110690
  0.120001
  0.131038
  0.149988
  0.168261
  0.179980
  0.179981
  0.168262
  0.149990
  0.131039
  0.114829
  0.103260
   0.09600
   0.09323
   0.09600
  0.103260
  0.114828
  0.131038
  0.131038
  0.157770
  0.187520
  0.212903
  0.223095
  0.212904
  0.187521
  0.157771
  0.131039
  0.110691
   0.09780
   0.09137
   0.09137
   0.09780
  0.110691
  0.131038
  0.120001
  0.149988
  0.187519
  0.225886
  0.251206
  0.251206
  0.225888
  0.187521
  0.149989
  0.120001
   0.09971
   0.08839
   0.08467
   0.08839
   0.09971
  0.120001
  0.102212
  0.129907
  0.168260
  0.212902
  0.251206
  0.266392
  0.251206
  0.212903
  0.168261
  0.129908
  0.102212
   0.08539
   0.07751
   0.07751
   0.08539
  0.102212
   0.08331
  0.105100
  0.138005
  0.179980
  0.223094
  0.251206
  0.251206
  0.223095
  0.179980
  0.138006
  0.105100
   0.08331
   0.07146
   0.06766
   0.07146
   0.08331
   0.06721
   0.08227
  0.107127
  0.141156
  0.179980
  0.212903
  0.225888
  0.212903
  0.179980
  0.141156
  0.107127
   0.08227
   0.06721
   0.06010
   0.06010
   0.06721
   0.05568
   0.06516
   0.08199
  0.107127
  0.138006
  0.168261
  0.187521
  0.187521
  0.168261
  0.138006
  0.107127
   0.08199
   0.06516
   0.05568
   0.05246
   0.05568
   0.04895
   0.05439
   0.06516
   0.08227
  0.105100
  0.129908
  0.149990
  0.157772
  0.149990
  0.129908
  0.105100
   0.08227
   0.06516
   0.05439
   0.04895
   0.04895
   0.04674
   0.04895
   0.05568
   0.06721
   0.08331
  0.102212
  0.120002
  0.131040
  0.131040
  0.120002
  0.102212
   0.08331
   0.06721
   0.05568
   0.04895
   0.04674
   0.02983
   0.03096
   0.03443
   0.04021
   0.04788
   0.05652
   0.06432
   0.06905
   0.06905
   0.06432
   0.05652
   0.04788
   0.04021
   0.03443
   0.03096
   0.02983
   0.03096
   0.03096
   0.03299
   0.03677
   0.04235
   0.04921
   0.05601
   0.06113
   0.06305
   0.06113
   0.05601
   0.04921
   0.04235
   0.03677
   0.03299
   0.03096
   0.03443
   0.03353
   0.03443
   0.03677
   0.04050
   0.04560
   0.05106
   0.05575
   0.05843
   0.05843
   0.05575
   0.05106
   0.04559
   0.04050
   0.03677
   0.03443
   0.04021
   0.03906
   0.03906
   0.04021
   0.04235
   0.04560
   0.04936
   0.05299
   0.05560
   0.05646
   0.05560
   0.05299
   0.04936
   0.04559
   0.04235
   0.04021
   0.04788
   0.04722
   0.04698
   0.04722
   0.04788
   0.04921
   0.05106
   0.05299
   0.05469
   0.05554
   0.05554
   0.05469
   0.05299
   0.05106
   0.04921
   0.04788
   0.05652
   0.05736
   0.05791
   0.05791
   0.05736
   0.05652
   0.05601
   0.05575
   0.05560
   0.05554
   0.05550
   0.05554
   0.05560
   0.05575
   0.05601
   0.05652
   0.06432
   0.06792
   0.07086
   0.07192
   0.07086
   0.06793
   0.06432
   0.06113
   0.05843
   0.05646
   0.05554
   0.05554
   0.05646
   0.05843
   0.06113
   0.06432
   0.06904
   0.07612
   0.08293
   0.08703
   0.08703
   0.08293
   0.07612
   0.06905
   0.06305
   0.05843
   0.05560
   0.05469
   0.05560
   0.05843
   0.06305
   0.06904
   0.06904
   0.07926
   0.09036
   0.09912
  0.102400
   0.09912
   0.09036
   0.07926
   0.06905
   0.06113
   0.05575
   0.05299
   0.05299
   0.05575
   0.06113
   0.06904
   0.06432
   0.07612
   0.09036
  0.103834
  0.112034
  0.112034
  0.103834
   0.09036
   0.07612
   0.06432
   0.05601
   0.05106
   0.04936
   0.05106
   0.05601
   0.06432
   0.05652
   0.06792
   0.08293
   0.09912
  0.112034
  0.116973
  0.112034
   0.09912
   0.08293
   0.06792
   0.05652
   0.04921
   0.04560
   0.04560
   0.04921
   0.05652
   0.04788
   0.05736
   0.07085
   0.08703
  0.102400
  0.112034
  0.112034
  0.102400
   0.08703
   0.07085
   0.05736
   0.04788
   0.04235
   0.04050
   0.04235
   0.04788
   0.04021
   0.04722
   0.05791
   0.07192
   0.08703
   0.09912
  0.103834
   0.09912
   0.08703
   0.07192
   0.05791
   0.04722
   0.04021
   0.03677
   0.03677
   0.04021
   0.03443
   0.03906
   0.04698
   0.05791
   0.07086
   0.08293
   0.09036
   0.09036
   0.08293
   0.07085
   0.05791
   0.04698
   0.03906
   0.03443
   0.03299
   0.03443
   0.03096
   0.03353
   0.03906
   0.04722
   0.05736
   0.06792
   0.07612
   0.07926
   0.07612
   0.06792
   0.05736
   0.04722
   0.03906
   0.03353
   0.03096
   0.03096
   0.02983
   0.03096
   0.03443
   0.04021
   0.04788
   0.05652
   0.06432
   0.06905
   0.06905
   0.06432
   0.05652
   0.04788
   0.04021
   0.03443
   0.03096
   0.02983
   0.01886
   0.01940
   0.02109
   0.02384
   0.02741
   0.03133
   0.03469
   0.03664
   0.03664
   0.03469
   0.03133
   0.02741
   0.02384
   0.02109
   0.01940
   0.01886
   0.01940
   0.01940
   0.02046
   0.02230
   0.02498
   0.02816
   0.03120
   0.03350
   0.03437
   0.03350
   0.03120
   0.02816
   0.02498
   0.02230
   0.02046
   0.01940
   0.02109
   0.02060
   0.02109
   0.02230
   0.02420
   0.02665
   0.02912
   0.03132
   0.03264
   0.03264
   0.03132
   0.02912
   0.02665
   0.02420
   0.02230
   0.02109
   0.02384
   0.02329
   0.02329
   0.02384
   0.02498
   0.02665
   0.02846
   0.03029
   0.03163
   0.03204
   0.03163
   0.03029
   0.02846
   0.02665
   0.02498
   0.02384
   0.02741
   0.02701
   0.02692
   0.02701
   0.02741
   0.02816
   0.02912
   0.03029
   0.03139
   0.03186
   0.03186
   0.03139
   0.03029
   0.02912
   0.02816
   0.02741
   0.03133
   0.03145
   0.03158
   0.03158
   0.03145
   0.03133
   0.03120
   0.03132
   0.03163
   0.03186
   0.03195
   0.03186
   0.03163
   0.03132
   0.03120
   0.03133
   0.03469
   0.03592
   0.03685
   0.03725
   0.03685
   0.03592
   0.03469
   0.03350
   0.03264
   0.03204
   0.03186
   0.03186
   0.03204
   0.03264
   0.03350
   0.03469
   0.03664
   0.03923
   0.04146
   0.04289
   0.04289
   0.04146
   0.03923
   0.03664
   0.03437
   0.03264
   0.03163
   0.03139
   0.03163
   0.03264
   0.03437
   0.03664
   0.03664
   0.04048
   0.04429
   0.04715
   0.04828
   0.04715
   0.04429
   0.04048
   0.03664
   0.03350
   0.03132
   0.03029
   0.03029
   0.03132
   0.03350
   0.03664
   0.03469
   0.03923
   0.04429
   0.04886
   0.05164
   0.05164
   0.04886
   0.04429
   0.03923
   0.03469
   0.03120
   0.02912
   0.02846
   0.02912
   0.03120
   0.03469
   0.03133
   0.03592
   0.04146
   0.04715
   0.05164
   0.05338
   0.05164
   0.04715
   0.04146
   0.03592
   0.03133
   0.02816
   0.02665
   0.02665
   0.02816
   0.03133
   0.02741
   0.03145
   0.03685
   0.04289
   0.04828
   0.05164
   0.05164
   0.04828
   0.04289
   0.03685
   0.03145
   0.02741
   0.02498
   0.02420
   0.02498
   0.02741
   0.02384
   0.02701
   0.03158
   0.03725
   0.04289
   0.04715
   0.04886
   0.04715
   0.04289
   0.03725
   0.03158
   0.02701
   0.02384
   0.02230
   0.02230
   0.02384
   0.02109
   0.02329
   0.02692
   0.03158
   0.03685
   0.04146
   0.04429
   0.04429
   0.04146
   0.03685
   0.03158
   0.02692
   0.02329
   0.02109
   0.02046
   0.02109
   0.01940
   0.02060
   0.02329
   0.02701
   0.03145
   0.03592
   0.03923
   0.04048
   0.03923
   0.03592
   0.03145
   0.02701
   0.02329
   0.02060
   0.01940
   0.01940
   0.01886
   0.01940
   0.02109
   0.02384
   0.02741
   0.03133
   0.03469
   0.03664
   0.03664
   0.03469
   0.03133
   0.02741
   0.02384
   0.02109
   0.01940
   0.01886
   0.01256
   0.01285
   0.01374
   0.01513
   0.01688
   0.01872
   0.02026
   0.02113
   0.02113
   0.02026
   0.01872
   0.01688
   0.01513
   0.01374
   0.01285
   0.01256
   0.01285
   0.01285
   0.01336
   0.01435
   0.01580
   0.01740
   0.01887
   0.01995
   0.02035
   0.01995
   0.01887
   0.01740
   0.01580
   0.01435
   0.01336
   0.01285
   0.01374
   0.01354
   0.01374
   0.01435
   0.01541
   0.01673
   0.01803
   0.01916
   0.01981
   0.01981
   0.01916
   0.01803
   0.01673
   0.01541
   0.01435
   0.01374
   0.01513
   0.01483
   0.01483
   0.01513
   0.01580
   0.01673
   0.01773
   0.01869
   0.01938
   0.01962
   0.01938
   0.01869
   0.01773
   0.01673
   0.01580
   0.01513
   0.01688
   0.01653
   0.01645
   0.01653
   0.01688
   0.01740
   0.01803
   0.01869
   0.01920
   0.01955
   0.01955
   0.01920
   0.01869
   0.01803
   0.01740
   0.01688
   0.01872
   0.01858
   0.01854
   0.01854
   0.01858
   0.01872
   0.01887
   0.01916
   0.01938
   0.01955
   0.01970
   0.01955
   0.01938
   0.01916
   0.01887
   0.01872
   0.02026
   0.02059
   0.02083
   0.02098
   0.02083
   0.02059
   0.02026
   0.01995
   0.01981
   0.01962
   0.01955
   0.01955
   0.01962
   0.01981
   0.01995
   0.02026
   0.02113
   0.02204
   0.02274
   0.02326
   0.02326
   0.02274
   0.02204
   0.02113
   0.02035
   0.01981
   0.01938
   0.01920
   0.01938
   0.01981
   0.02035
   0.02113
   0.02113
   0.02258
   0.02390
   0.02492
   0.02535
   0.02492
   0.02390
   0.02258
   0.02113
   0.01995
   0.01916
   0.01869
   0.01869
   0.01916
   0.01995
   0.02113
   0.02026
   0.02204
   0.02390
   0.02557
   0.02655
   0.02655
   0.02557
   0.02390
   0.02204
   0.02026
   0.01887
   0.01803
   0.01773
   0.01803
   0.01887
   0.02026
   0.01872
   0.02059
   0.02274
   0.02492
   0.02655
   0.02711
   0.02655
   0.02492
   0.02274
   0.02059
   0.01872
   0.01740
   0.01673
   0.01673
   0.01740
   0.01872
   0.01688
   0.01858
   0.02083
   0.02326
   0.02535
   0.02655
   0.02655
   0.02535
   0.02326
   0.02083
   0.01858
   0.01688
   0.01580
   0.01541
   0.01580
   0.01688
   0.01513
   0.01653
   0.01854
   0.02098
   0.02326
   0.02492
   0.02557
   0.02492
   0.02326
   0.02098
   0.01854
   0.01653
   0.01513
   0.01435
   0.01435
   0.01513
   0.01374
   0.01483
   0.01645
   0.01854
   0.02083
   0.02274
   0.02390
   0.02390
   0.02274
   0.02083
   0.01854
   0.01645
   0.01483
   0.01374
   0.01336
   0.01374
   0.01285
   0.01354
   0.01483
   0.01653
   0.01858
   0.02059
   0.02204
   0.02258
   0.02204
   0.02059
   0.01858
   0.01653
   0.01483
   0.01354
   0.01285
   0.01285
   0.01256
   0.01285
   0.01374
   0.01513
   0.01688
   0.01872
   0.02026
   0.02113
   0.02113
   0.02026
   0.01872
   0.01688
   0.01513
   0.01374
   0.01285
   0.01256
    0.0096
    0.0098
   0.01035
   0.01120
   0.01225
   0.01331
   0.01421
   0.01472
   0.01472
   0.01421
   0.01331
   0.01225
   0.01120
   0.01035
    0.0098
    0.0096
    0.0098
    0.0098
   0.01017
   0.01083
   0.01171
   0.01268
   0.01361
   0.01429
   0.01452
   0.01429
   0.01361
   0.01268
   0.01171
   0.01083
   0.01017
    0.0098
   0.01035
   0.01017
   0.01035
   0.01083
   0.01152
   0.01234
   0.01327
   0.01404
   0.01442
   0.01442
   0.01404
   0.01327
   0.01234
   0.01152
   0.01083
   0.01035
   0.01120
   0.01090
   0.01090
   0.01120
   0.01171
   0.01234
   0.01313
   0.01388
   0.01437
   0.01453
   0.01437
   0.01388
   0.01313
   0.01234
   0.01171
   0.01120
   0.01225
   0.01195
   0.01184
   0.01195
   0.01225
   0.01268
   0.01327
   0.01388
   0.01433
   0.01465
   0.01465
   0.01433
   0.01388
   0.01327
   0.01268
   0.01225
   0.01331
   0.01313
   0.01301
   0.01301
   0.01313
   0.01331
   0.01361
   0.01404
   0.01437
   0.01465
   0.01483
   0.01465
   0.01437
   0.01404
   0.01361
   0.01331
   0.01421
   0.01418
   0.01415
   0.01414
   0.01415
   0.01418
   0.01421
   0.01429
   0.01442
   0.01453
   0.01465
   0.01465
   0.01453
   0.01442
   0.01429
   0.01421
   0.01472
   0.01493
   0.01510
   0.01520
   0.01520
   0.01510
   0.01493
   0.01472
   0.01452
   0.01442
   0.01437
   0.01433
   0.01437
   0.01442
   0.01452
   0.01472
   0.01472
   0.01521
   0.01567
   0.01604
   0.01615
   0.01604
   0.01567
   0.01521
   0.01472
   0.01429
   0.01404
   0.01388
   0.01388
   0.01404
   0.01429
   0.01472
   0.01421
   0.01493
   0.01567
   0.01636
   0.01665
   0.01665
   0.01636
   0.01567
   0.01493
   0.01421
   0.01361
   0.01327
   0.01313
   0.01327
   0.01361
   0.01421
   0.01331
   0.01418
   0.01510
   0.01604
   0.01665
   0.01678
   0.01665
   0.01604
   0.01510
   0.01418
   0.01331
   0.01268
   0.01234
   0.01234
   0.01268
   0.01331
   0.01225
   0.01313
   0.01415
   0.01520
   0.01615
   0.01665
   0.01665
   0.01615
   0.01520
   0.01415
   0.01313
   0.01225
   0.01171
   0.01152
   0.01171
   0.01225
   0.01120
   0.01195
   0.01301
   0.01414
   0.01520
   0.01604
   0.01636
   0.01604
   0.01520
   0.01414
   0.01301
   0.01195
   0.01120
   0.01083
   0.01083
   0.01120
   0.01035
   0.01090
   0.01184
   0.01301
   0.01415
   0.01510
   0.01567
   0.01567
   0.01510
   0.01415
   0.01301
   0.01184
   0.01090
   0.01035
   0.01017
   0.01035
    0.0098
   0.01017
   0.01090
   0.01195
   0.01313
   0.01418
   0.01493
   0.01521
   0.01493
   0.01418
   0.01313
   0.01195
   0.01090
   0.01017
    0.0098
    0.0098
    0.0096
    0.0098
   0.01035
   0.01120
   0.01225
   0.01331
   0.01421
   0.01472
   0.01472
   0.01421
   0.01331
   0.01225
   0.01120
   0.01035
    0.0098
    0.0096
    0.0091
    0.0092
    0.0097
   0.01047
   0.01141
   0.01236
   0.01317
   0.01364
   0.01364
   0.01317
   0.01236
   0.01141
   0.01047
    0.0097
    0.0092
    0.0091
    0.0092
    0.0092
    0.0096
   0.01019
   0.01109
   0.01208
   0.01298
   0.01362
   0.01385
   0.01362
   0.01298
   0.01208
   0.01109
   0.01019
    0.0096
    0.0092
    0.0097
    0.0096
    0.0097
   0.01019
   0.01098
   0.01194
   0.01287
   0.01363
   0.01406
   0.01406
   0.01363
   0.01287
   0.01194
   0.01098
   0.01019
    0.0097
   0.01047
   0.01019
   0.01019
   0.01047
   0.01109
   0.01194
   0.01281
   0.01364
   0.01426
   0.01449
   0.01426
   0.01364
   0.01281
   0.01194
   0.01109
   0.01047
   0.01141
   0.01101
   0.01088
   0.01101
   0.01141
   0.01208
   0.01287
   0.01364
   0.01432
   0.01469
   0.01469
   0.01432
   0.01364
   0.01287
   0.01208
   0.01141
   0.01236
   0.01192
   0.01171
   0.01171
   0.01192
   0.01236
   0.01298
   0.01363
   0.01426
   0.01469
   0.01479
   0.01469
   0.01426
   0.01363
   0.01298
   0.01236
   0.01317
   0.01279
   0.01257
   0.01248
   0.01257
   0.01279
   0.01317
   0.01362
   0.01406
   0.01449
   0.01469
   0.01469
   0.01449
   0.01406
   0.01362
   0.01317
   0.01365
   0.01341
   0.01330
   0.01323
   0.01323
   0.01330
   0.01341
   0.01364
   0.01385
   0.01406
   0.01426
   0.01432
   0.01426
   0.01406
   0.01385
   0.01365
   0.01365
   0.01362
   0.01366
   0.01374
   0.01376
   0.01374
   0.01366
   0.01362
   0.01364
   0.01362
   0.01363
   0.01364
   0.01364
   0.01363
   0.01362
   0.01365
   0.01317
   0.01341
   0.01366
   0.01392
   0.01409
   0.01409
   0.01392
   0.01366
   0.01341
   0.01317
   0.01298
   0.01287
   0.01281
   0.01287
   0.01298
   0.01317
   0.01236
   0.01279
   0.01330
   0.01374
   0.01409
   0.01423
   0.01409
   0.01374
   0.01330
   0.01279
   0.01236
   0.01208
   0.01194
   0.01194
   0.01208
   0.01236
   0.01141
   0.01192
   0.01257
   0.01323
   0.01376
   0.01409
   0.01409
   0.01376
   0.01323
   0.01257
   0.01192
   0.01141
   0.01109
   0.01098
   0.01109
   0.01141
   0.01047
   0.01101
   0.01171
   0.01248
   0.01323
   0.01374
   0.01392
   0.01374
   0.01323
   0.01248
   0.01171
   0.01101
   0.01047
   0.01019
   0.01019
   0.01047
    0.0097
   0.01019
   0.01088
   0.01171
   0.01257
   0.01330
   0.01366
   0.01366
   0.01330
   0.01257
   0.01171
   0.01088
   0.01019
    0.0097
    0.0096
    0.0097
    0.0092
    0.0096
   0.01019
   0.01101
   0.01192
   0.01279
   0.01341
   0.01362
   0.01341
   0.01279
   0.01192
   0.01101
   0.01019
    0.0096
    0.0092
    0.0092
    0.0091
    0.0092
    0.0097
   0.01047
   0.01141
   0.01236
   0.01317
   0.01364
   0.01364
   0.01317
   0.01236
   0.01141
   0.01047
    0.0097
    0.0092
    0.0091
   0.01072
   0.01096
   0.01165
   0.01271
   0.01401
   0.01534
   0.01646
   0.01709
   0.01709
   0.01646
   0.01534
   0.01401
   0.01271
   0.01165
   0.01096
   0.01072
   0.01096
   0.01096
   0.01147
   0.01241
   0.01369
   0.01518
   0.01658
   0.01758
   0.01795
   0.01758
   0.01658
   0.01518
   0.01369
   0.01241
   0.01147
   0.01096
   0.01165
   0.01138
   0.01165
   0.01241
   0.01358
   0.01509
   0.01666
   0.01796
   0.01877
   0.01877
   0.01796
   0.01666
   0.01509
   0.01358
   0.01241
   0.01165