#                                                           
#  ____  ____     _       ____    ____  ______      ___     
# |_  _||_  _|   / \     |_   \  /   _||_   _ \   ."   `.   
#   \ \  / /    / _ \      |   \/   |    | |_) | /  .-.  \  
#    \ \/ /    / ___ \     | |\  /| |    |  __". | |   | |  
#    _|  |_  _/ /   \ \_  _| |_\/_| |_  _| |__) |\  `-"  /  
#   |______||____| |____||_____||_____||_______/  `.___."   
#                                                           
#                                                           
#                                                           
#        Version 4.3.0 Revision 15169 Hash 3ae439d          
#                   MPI+SLK+OpenMP Build                    
#                http://www.yambo-code.org                  
#
#
 CRYSTAL
 PRIMVEC
  2.495797  0.000000  0.000000
 -1.247898  2.161424  0.000000
  0.000000  0.000000  6.443175
 PRIMCOORD
   4   1
         5   1.24790   0.72047   0.00000
         5  -1.24790  -0.72047   3.22159
         7  -1.24790  -0.72047   0.00000
         7   1.24790   0.72047   3.22159
 BEGIN_BLOCK_DATAGRID_3D
 Generated with YPP  4   3   0
 BEGIN_DATAGRID_3D
   16   16   36
  0.00      0.00      0.00    
  2.495797  0.000000  0.000000
 -1.247898  2.161424  0.000000
  0.000000  0.000000  6.443175
  0.119559
  0.127874
  0.154694
  0.205022
  0.283199
  0.385800
  0.491038
  0.559120
  0.559120
  0.491037
  0.385800
  0.283198
  0.205022
  0.154694
  0.127874
  0.119559
  0.127874
  0.127874
  0.141982
  0.171669
  0.219493
  0.282783
  0.346078
  0.390417
  0.405988
  0.390418
  0.346078
  0.282783
  0.219492
  0.171669
  0.141982
  0.127874
  0.154693
  0.149159
  0.154694
  0.171669
  0.200880
  0.238154
  0.265576
  0.270969
  0.267180
  0.267180
  0.270969
  0.265577
  0.238154
  0.200879
  0.171669
  0.154693
  0.205022
  0.198121
  0.198121
  0.205022
  0.219493
  0.238155
  0.239306
  0.207377
  0.170041
  0.155879
  0.170041
  0.207377
  0.239306
  0.238154
  0.219492
  0.205022
  0.283199
  0.284424
  0.285079
  0.284424
  0.283200
  0.282784
  0.265578
  0.207377
  0.137981
  0.100705
  0.100704
  0.137981
  0.207378
  0.265578
  0.282783
  0.283199
  0.385800
  0.416936
  0.437314
  0.437315
  0.416938
  0.385802
  0.346080
  0.270970
  0.170040
  0.100704
   0.07991
  0.100704
  0.170041
  0.270970
  0.346079
  0.385800
  0.491039
  0.581532
  0.650411
  0.674480
  0.650413
  0.581535
  0.491041
  0.390420
  0.267180
  0.155878
  0.100704
  0.100704
  0.155879
  0.267181
  0.390420
  0.491039
  0.559122
  0.721584
  0.844631
  0.891769
  0.891770
  0.844634
  0.721586
  0.559123
  0.405990
  0.267179
  0.170040
  0.137980
  0.170040
  0.267180
  0.405990
  0.559122
  0.559121
  0.775673
  0.944888
  0.984871
  0.976331
  0.984876
  0.944891
  0.775675
  0.559123
  0.390418
  0.270968
  0.207375
  0.207375
  0.270968
  0.390418
  0.559121
  0.491038
  0.721584
  0.944893
  0.999996
  0.959992
  0.959995
  1.000000
  0.944894
  0.721585
  0.491040
  0.346078
  0.265575
  0.239304
  0.265575
  0.346077
  0.491038
  0.385799
  0.581533
  0.844638
  0.984887
  0.960003
  0.930342
  0.960002
  0.984885
  0.844637
  0.581534
  0.385801
  0.282783
  0.238153
  0.238153
  0.282781
  0.385799
  0.283198
  0.416937
  0.650414
  0.891781
  0.976349
  0.959999
  0.959995
  0.976343
  0.891777
  0.650414
  0.416938
  0.283199
  0.219492
  0.200879
  0.219492
  0.283198
  0.205022
  0.284424
  0.437315
  0.674483
  0.891779
  0.984880
  0.999989
  0.984873
  0.891773
  0.674481
  0.437315
  0.284424
  0.205022
  0.171669
  0.171669
  0.205022
  0.154694
  0.198121
  0.285079
  0.437315
  0.650414
  0.844635
  0.944886
  0.944884
  0.844630
  0.650411
  0.437314
  0.285079
  0.198121
  0.154694
  0.141982
  0.154694
  0.127874
  0.149160
  0.198121
  0.284424
  0.416937
  0.581533
  0.721583
  0.775670
  0.721581
  0.581531
  0.416936
  0.284424
  0.198121
  0.149160
  0.127874
  0.127874
  0.119559
  0.127874
  0.154694
  0.205022
  0.283199
  0.385800
  0.491038
  0.559120
  0.559120
  0.491037
  0.385800
  0.283198
  0.205022
  0.154694
  0.127874
  0.119559
  0.111487
  0.119016
  0.143209
  0.188507
  0.258371
  0.349074
  0.441620
  0.501467
  0.501467
  0.441620
  0.349074
  0.258370
  0.188507
  0.143209
  0.119016
  0.111487
  0.119016
  0.119016
  0.131809
  0.158714
  0.201669
  0.258820
  0.317088
  0.358304
  0.372682
  0.358304
  0.317088
  0.258820
  0.201669
  0.158714
  0.131809
  0.119016
  0.143208
  0.138193
  0.143209
  0.158714
  0.185135
  0.219481
  0.247580
  0.256513
  0.254768
  0.254768
  0.256513
  0.247581
  0.219481
  0.185135
  0.158714
  0.143208
  0.188507
  0.182166
  0.182166
  0.188508
  0.201670
  0.219481
  0.224917
  0.201436
  0.168918
  0.155528
  0.168917
  0.201436
  0.224917
  0.219481
  0.201669
  0.188507
  0.258371
  0.259166
  0.259559
  0.259167
  0.258371
  0.258820
  0.247581
  0.201436
  0.139511
  0.102752
  0.102752
  0.139511
  0.201436
  0.247581
  0.258820
  0.258371
  0.349075
  0.375510
  0.392968
  0.392968
  0.375511
  0.349075
  0.317089
  0.256513
  0.168917
  0.102752
   0.08135
  0.102751
  0.168917
  0.256513
  0.317089
  0.349075
  0.441621
  0.519413
  0.581356
  0.603789
  0.581357
  0.519414
  0.441621
  0.358304
  0.254767
  0.155527
  0.102751
  0.102751
  0.155527
  0.254767
  0.358304
  0.441621
  0.501468
  0.643508
  0.760835
  0.813032
  0.813033
  0.760836
  0.643508
  0.501467
  0.372681
  0.254766
  0.168916
  0.139510
  0.168916
  0.254767
  0.372682
  0.501468
  0.501467
  0.692119
  0.858941
  0.918958
  0.921286
  0.918960
  0.858941
  0.692118
  0.501467
  0.358303
  0.256512
  0.201434
  0.201434
  0.256512
  0.358303
  0.501467
  0.441620
  0.643509
  0.858944
  0.941456
  0.923099
  0.923101
  0.941457
  0.858942
  0.643508
  0.441621
  0.317088
  0.247580
  0.224916
  0.247580
  0.317087
  0.441620
  0.349074
  0.519413
  0.760839
  0.918969
  0.923107
  0.901131
  0.923105
  0.918965
  0.760837
  0.519414
  0.349075
  0.258820
  0.219481
  0.219481
  0.258819
  0.349074
  0.258371
  0.375510
  0.581358
  0.813040
  0.921299
  0.923103
  0.923099
  0.921291
  0.813035
  0.581357
  0.375511
  0.258371
  0.201670
  0.185136
  0.201669
  0.258371
  0.188508
  0.259166
  0.392968
  0.603790
  0.813039
  0.918963
  0.941449
  0.918956
  0.813033
  0.603788
  0.392968
  0.259167
  0.188508
  0.158714
  0.158714
  0.188508
  0.143209
  0.182166
  0.259559
  0.392968
  0.581358
  0.760837
  0.858939
  0.858937
  0.760833
  0.581355
  0.392967
  0.259559
  0.182166
  0.143209
  0.131810
  0.143209
  0.119016
  0.138193
  0.182166
  0.259166
  0.375510
  0.519413
  0.643508
  0.692117
  0.643506
  0.519412
  0.375509
  0.259166
  0.182166
  0.138193
  0.119017
  0.119016
  0.111487
  0.119016
  0.143209
  0.188507
  0.258371
  0.349074
  0.441620
  0.501467
  0.501467
  0.441620
  0.349074
  0.258370
  0.188507
  0.143209
  0.119016
  0.111487
   0.09032
   0.09611
  0.114190
  0.147404
  0.197672
  0.261034
  0.324496
  0.365434
  0.365433
  0.324496
  0.261034
  0.197672
  0.147404
  0.114190
   0.09611
   0.09032
   0.09611
   0.09611
  0.105733
  0.126018
  0.157579
  0.199344
  0.243496
  0.276176
  0.287850
  0.276177
  0.243497
  0.199345
  0.157579
  0.126018
  0.105733
   0.09611
  0.114190
  0.110530
  0.114190
  0.126018
  0.145959
  0.172362
  0.198411
  0.213437
  0.217587
  0.217588
  0.213438
  0.198412
  0.172362
  0.145959
  0.126018
  0.114190
  0.147404
  0.142515
  0.142516
  0.147404
  0.157579
  0.172362
  0.184077
  0.179266
  0.162926
  0.154652
  0.162926
  0.179268
  0.184078
  0.172362
  0.157579
  0.147404
  0.197672
  0.197494
  0.197414
  0.197494
  0.197673
  0.199344
  0.198411
  0.179266
  0.142573
  0.115050
  0.115050
  0.142573
  0.179267
  0.198411
  0.199345
  0.197672
  0.261034
  0.277324
  0.287952
  0.287952
  0.277325
  0.261034
  0.243496
  0.213436
  0.162925
  0.115050
   0.09663
  0.115050
  0.162925
  0.213438
  0.243497
  0.261034
  0.324496
  0.373602
  0.415512
  0.431650
  0.415512
  0.373602
  0.324495
  0.276175
  0.217585
  0.154651
  0.115050
  0.115050
  0.154651
  0.217587
  0.276176
  0.324496
  0.365433
  0.457914
  0.547475
  0.598331
  0.598331
  0.547474
  0.457913
  0.365433
  0.287848
  0.217585
  0.162924
  0.142572
  0.162925
  0.217586
  0.287849
  0.365433
  0.365433
  0.491745
  0.628571
  0.714067
  0.737388
  0.714066
  0.628570
  0.491744
  0.365433
  0.276175
  0.213437
  0.179266
  0.179266
  0.213437
  0.276176
  0.365433
  0.324495
  0.457913
  0.628571
  0.750106
  0.787847
  0.787847
  0.750104
  0.628570
  0.457913
  0.324496
  0.243497
  0.198412
  0.184078
  0.198411
  0.243496
  0.324495
  0.261034
  0.373602
  0.547474
  0.714070
  0.787850
  0.798298
  0.787847
  0.714066
  0.547473
  0.373602
  0.261035
  0.199346
  0.172363
  0.172363
  0.199345
  0.261034
  0.197673
  0.277324
  0.415512
  0.598332
  0.737391
  0.787848
  0.787846
  0.737387
  0.598329
  0.415511
  0.277325
  0.197673
  0.157580
  0.145960
  0.157580
  0.197673
  0.147405
  0.197494
  0.287951
  0.431649
  0.598332
  0.714068
  0.750103
  0.714065
  0.598329
  0.431648
  0.287951
  0.197495
  0.147405
  0.126019
  0.126019
  0.147405
  0.114191
  0.142516
  0.197414
  0.287951
  0.415512
  0.547474
  0.628570
  0.628569
  0.547472
  0.415510
  0.287951
  0.197414
  0.142516
  0.114191
  0.105733
  0.114191
   0.09611
  0.110530
  0.142515
  0.197494
  0.277324
  0.373602
  0.457914
  0.491745
  0.457913
  0.373601
  0.277324
  0.197494
  0.142516
  0.110530
   0.09611
   0.09611
   0.09032
   0.09611
  0.114190
  0.147404
  0.197672
  0.261034
  0.324496
  0.365434
  0.365433
  0.324496
  0.261034
  0.197672
  0.147404
  0.114190
   0.09611
   0.09032
   0.06413
   0.06793
   0.07928
   0.09945
  0.129259
  0.165521
  0.200618
  0.222832
  0.222832
  0.200618
  0.165522
  0.129259
   0.09945
   0.07928
   0.06793
   0.06413
   0.06793
   0.06793
   0.07393
   0.08670
  0.106116
  0.131022
  0.157549
  0.178151
  0.185862
  0.178152
  0.157550
  0.131022
  0.106117
   0.08670
   0.07393
   0.06793
   0.07928
   0.07712
   0.07928
   0.08670
   0.09924
  0.115733
  0.133990
  0.148638
  0.156112
  0.156112
  0.148638
  0.133991
  0.115734
   0.09924
   0.08670
   0.07928
   0.09945
   0.09632
   0.09632
   0.09945
  0.106117
  0.115733
  0.126739
  0.133557
  0.133993
  0.133133
  0.133994
  0.133558
  0.126740
  0.115733
  0.106117
   0.09945
  0.129259
  0.128526
  0.128361
  0.128527
  0.129259
  0.131022
  0.133990
  0.133557
  0.125250
  0.116248
  0.116249
  0.125251
  0.133558
  0.133991
  0.131022
  0.129259
  0.165522
  0.173356
  0.178352
  0.178352
  0.173356
  0.165522
  0.157549
  0.148637
  0.133992
  0.116248
  0.107993
  0.116249
  0.133994
  0.148638
  0.157549
  0.165522
  0.200618
  0.224470
  0.244554
  0.252553
  0.244554
  0.224470
  0.200618
  0.178151
  0.156111
  0.133132
  0.116248
  0.116248
  0.133132
  0.156111
  0.178151
  0.200618
  0.222831
  0.267907
  0.314003
  0.343888
  0.343888
  0.314004
  0.267907
  0.222832
  0.185861
  0.156111
  0.133993
  0.125251
  0.133993
  0.156111
  0.185861
  0.222831
  0.222831
  0.285216
  0.359645
  0.421362
  0.444576
  0.421362
  0.359645
  0.285216
  0.222832
  0.178151
  0.148638
  0.133558
  0.133558
  0.148638
  0.178151
  0.222831
  0.200618
  0.267907
  0.359644
  0.450990
  0.504058
  0.504058
  0.450989
  0.359645
  0.267907
  0.200618
  0.157550
  0.133992
  0.126741
  0.133992
  0.157550
  0.200618
  0.165522
  0.224469
  0.314002
  0.421361
  0.504058
  0.532601
  0.504057
  0.421361
  0.314003
  0.224470
  0.165522
  0.131023
  0.115734
  0.115734
  0.131022
  0.165522
  0.129259
  0.173356
  0.244553
  0.343887
  0.444575
  0.504058
  0.504057
  0.444574
  0.343887
  0.244553
  0.173357
  0.129260
  0.106118
   0.09925
  0.106117
  0.129259
   0.09945
  0.128526
  0.178351
  0.252551
  0.343887
  0.421361
  0.450989
  0.421361
  0.343886
  0.252552
  0.178352
  0.128527
   0.09945
   0.08670
   0.08670
   0.09945
   0.07928
   0.09632
  0.128361
  0.178351
  0.244553
  0.314003
  0.359645
  0.359644
  0.314003
  0.244553
  0.178352
  0.128361
   0.09632
   0.07928
   0.07393
   0.07928
   0.06793
   0.07712
   0.09632
  0.128526
  0.173356
  0.224469
  0.267907
  0.285216
  0.267907
  0.224469
  0.173356
  0.128527
   0.09632
   0.07712
   0.06793
   0.06793
   0.06413
   0.06793
   0.07928
   0.09945
  0.129259
  0.165521
  0.200618
  0.222832
  0.222832
  0.200618
  0.165522
  0.129259
   0.09945
   0.07928
   0.06793
   0.06413
   0.04025
   0.04229
   0.04842
   0.05896
   0.07380
   0.09129
  0.107776
  0.117931
  0.117931
  0.107776
   0.09129
   0.07380
   0.05896
   0.04842
   0.04229
   0.04025
   0.04229
   0.04229
   0.04557
   0.05241
   0.06270
   0.07537
   0.08830
   0.09827
  0.102043
   0.09827
   0.08830
   0.07537
   0.06270
   0.05241
   0.04557
   0.04229
   0.04842
   0.04716
   0.04842
   0.05241
   0.05906
   0.06779
   0.07749
   0.08591
   0.09074
   0.09074
   0.08591
   0.07749
   0.06779
   0.05906
   0.05241
   0.04842
   0.05896
   0.05715
   0.05715
   0.05896
   0.06270
   0.06779
   0.07391
   0.07975
   0.08358
   0.08490
   0.08358
   0.07975
   0.07392
   0.06779
   0.06270
   0.05896
   0.07380
   0.07300
   0.07294
   0.07300
   0.07380
   0.07537
   0.07749
   0.07975
   0.08085
   0.08104
   0.08104
   0.08085
   0.07975
   0.07749
   0.07537
   0.07380
   0.09129
   0.09423
   0.09646
   0.09646
   0.09423
   0.09129
   0.08830
   0.08591
   0.08358
   0.08104
   0.07986
   0.08104
   0.08358
   0.08591
   0.08830
   0.09129
  0.107776
  0.117616
  0.125516
  0.128743
  0.125516
  0.117616
  0.107777
   0.09827
   0.09074
   0.08490
   0.08104
   0.08104
   0.08490
   0.09074
   0.09827
  0.107776
  0.117930
  0.136516
  0.154152
  0.165470
  0.165470
  0.154153
  0.136517
  0.117931
  0.102043
   0.09074
   0.08358
   0.08085
   0.08358
   0.09074
  0.102043
  0.117930
  0.117930
  0.143756
  0.172501
  0.196906
  0.206591
  0.196906
  0.172502
  0.143757
  0.117931
   0.09827
   0.08591
   0.07975
   0.07975
   0.08591
   0.09827
  0.117930
  0.107776
  0.136516
  0.172501
  0.209556
  0.233757
  0.233757
  0.209557
  0.172502
  0.136517
  0.107777
   0.08830
   0.07750
   0.07392
   0.07749
   0.08830
  0.107776
   0.09129
  0.117615
  0.154151
  0.196905
  0.233756
  0.248301
  0.233757
  0.196906
  0.154152
  0.117616
   0.09129
   0.07537
   0.06779
   0.06779
   0.07537
   0.09129
   0.07380
   0.09423
  0.125515
  0.165469
  0.206591
  0.233756
  0.233756
  0.206591
  0.165470
  0.125516
   0.09423
   0.07380
   0.06270
   0.05906
   0.06270
   0.07380
   0.05896
   0.07300
   0.09646
  0.128742
  0.165469
  0.196906
  0.209556
  0.196906
  0.165469
  0.128742
   0.09646
   0.07300
   0.05896
   0.05241
   0.05241
   0.05896
   0.04842
   0.05715
   0.07294
   0.09646
  0.125515
  0.154152
  0.172502
  0.172502
  0.154152
  0.125516
   0.09646
   0.07294
   0.05715
   0.04842
   0.04557
   0.04842
   0.04229
   0.04716
   0.05715
   0.07300
   0.09423
  0.117616
  0.136517
  0.143757
  0.136517
  0.117616
   0.09423
   0.07300
   0.05715
   0.04716
   0.04229
   0.04229
   0.04025
   0.04229
   0.04842
   0.05896
   0.07380
   0.09129
  0.107776
  0.117931
  0.117931
  0.107776
   0.09129
   0.07380
   0.05896
   0.04842
   0.04229
   0.04025
   0.02228
   0.02318
   0.02602
   0.03084
   0.03727
   0.04456
   0.05121
   0.05527
   0.05527
   0.05121
   0.04456
   0.03727
   0.03084
   0.02602
   0.02318
   0.02228
   0.02318
   0.02318
   0.02477
   0.02783
   0.03247
   0.03811
   0.04366
   0.04792
   0.04955
   0.04792
   0.04366
   0.03811
   0.03247
   0.02783
   0.02477
   0.02318
   0.02602
   0.02535
   0.02602
   0.02783
   0.03081
   0.03487
   0.03923
   0.04299
   0.04515
   0.04515
   0.04299
   0.03923
   0.03487
   0.03081
   0.02783
   0.02602
   0.03084
   0.03005
   0.03005
   0.03084
   0.03247
   0.03487
   0.03769
   0.04043
   0.04235
   0.04298
   0.04235
   0.04043
   0.03769
   0.03487
   0.03247
   0.03084
   0.03727
   0.03691
   0.03688
   0.03691
   0.03727
   0.03811
   0.03923
   0.04043
   0.04143
   0.04202
   0.04202
   0.04143
   0.04043
   0.03923
   0.03811
   0.03727
   0.04455
   0.04554
   0.04631
   0.04631
   0.04554
   0.04456
   0.04366
   0.04299
   0.04235
   0.04202
   0.04205
   0.04202
   0.04235
   0.04299
   0.04366
   0.04455
   0.05121
   0.05480
   0.05767
   0.05882
   0.05767
   0.05480
   0.05121
   0.04792
   0.04515
   0.04298
   0.04202
   0.04202
   0.04298
   0.04515
   0.04792
   0.05121
   0.05527
   0.06201
   0.06836
   0.07229
   0.07229
   0.06836
   0.06201
   0.05527
   0.04955
   0.04515
   0.04235
   0.04143
   0.04235
   0.04515
   0.04955
   0.05527
   0.05527
   0.06473
   0.07493
   0.08305
   0.08615
   0.08305
   0.07493
   0.06473
   0.05527
   0.04792
   0.04299
   0.04043
   0.04043
   0.04299
   0.04792
   0.05527
   0.05121
   0.06201
   0.07493
   0.08727
   0.09485
   0.09485
   0.08727
   0.07493
   0.06201
   0.05121
   0.04366
   0.03923
   0.03769
   0.03923
   0.04366
   0.05121
   0.04456
   0.05480
   0.06836
   0.08305
   0.09485
   0.09935
   0.09485
   0.08305
   0.06836
   0.05480
   0.04456
   0.03811
   0.03487
   0.03487
   0.03811
   0.04456
   0.03727
   0.04554
   0.05767
   0.07229
   0.08615
   0.09485
   0.09485
   0.08615
   0.07229
   0.05767
   0.04554
   0.03727
   0.03247
   0.03081
   0.03247
   0.03727
   0.03084
   0.03691
   0.04631
   0.05882
   0.07229
   0.08305
   0.08727
   0.08305
   0.07229
   0.05882
   0.04631
   0.03691
   0.03084
   0.02783
   0.02783
   0.03084
   0.02602
   0.03004
   0.03688
   0.04631
   0.05767
   0.06836
   0.07493
   0.07493
   0.06836
   0.05767
   0.04631
   0.03688
   0.03004
   0.02602
   0.02477
   0.02602
   0.02318
   0.02535
   0.03005
   0.03691
   0.04554
   0.05480
   0.06201
   0.06473
   0.06201
   0.05480
   0.04554
   0.03691
   0.03005
   0.02535
   0.02318
   0.02318
   0.02228
   0.02318
   0.02602
   0.03084
   0.03727
   0.04456
   0.05121
   0.05527
   0.05527
   0.05121
   0.04456
   0.03727
   0.03084
   0.02602
   0.02318
   0.02228
   0.01050
   0.01088
   0.01202
   0.01386
   0.01633
   0.01906
   0.02140
   0.02278
   0.02278
   0.02140
   0.01906
   0.01633
   0.01386
   0.01202
   0.01088
   0.01050
   0.01088
   0.01088
   0.01157
   0.01275
   0.01447
   0.01656
   0.01860
   0.02017
   0.02076
   0.02017
   0.01860
   0.01656
   0.01447
   0.01275
   0.01157
   0.01088
   0.01202
   0.01172
   0.01202
   0.01275
   0.01393
   0.01544
   0.01695
   0.01834
   0.01918
   0.01918
   0.01834
   0.01695
   0.01544
   0.01393
   0.01275
   0.01202
   0.01386
   0.01355
   0.01355
   0.01386
   0.01447
   0.01544
   0.01646
   0.01747
   0.01823
   0.01844
   0.01823
   0.01747
   0.01646
   0.01544
   0.01447
   0.01386
   0.01633
   0.01621
   0.01614
   0.01621
   0.01633
   0.01656
   0.01695
   0.01747
   0.01797
   0.01813
   0.01813
   0.01797
   0.01747
   0.01695
   0.01656
   0.01633
   0.01906
   0.01948
   0.01960
   0.01960
   0.01948
   0.01906
   0.01860
   0.01834
   0.01823
   0.01813
   0.01809
   0.01813
   0.01823
   0.01834
   0.01860
   0.01906
   0.02139
   0.02268
   0.02357
   0.02386
   0.02357
   0.02268
   0.02140
   0.02017
   0.01918
   0.01844
   0.01813
   0.01813
   0.01844
   0.01918
   0.02016
   0.02139
   0.02278
   0.02506
   0.02705
   0.02827
   0.02827
   0.02705
   0.02506
   0.02278
   0.02076
   0.01918
   0.01823
   0.01797
   0.01823
   0.01918
   0.02076
   0.02278
   0.02278
   0.02599
   0.02922
   0.03168
   0.03266
   0.03168
   0.02922
   0.02600
   0.02278
   0.02016
   0.01834
   0.01747
   0.01747
   0.01834
   0.02016
   0.02278
   0.02139
   0.02506
   0.02922
   0.03304
   0.03535
   0.03535
   0.03304
   0.02922
   0.02506
   0.02139
   0.01860
   0.01695
   0.01646
   0.01695
   0.01860
   0.02139
   0.01906
   0.02268
   0.02705
   0.03168
   0.03535
   0.03673
   0.03535
   0.03168
   0.02705
   0.02268
   0.01906
   0.01656
   0.01544
   0.01544
   0.01656
   0.01906
   0.01633
   0.01948
   0.02357
   0.02827
   0.03266
   0.03535
   0.03535
   0.03266
   0.02827
   0.02357
   0.01948
   0.01633
   0.01447
   0.01393
   0.01447
   0.01633
   0.01386
   0.01621
   0.01960
   0.02386
   0.02827
   0.03168
   0.03304
   0.03168
   0.02827
   0.02386
   0.01960
   0.01621
   0.01386
   0.01275
   0.01275
   0.01386
   0.01202
   0.01355
   0.01614
   0.01960
   0.02357
   0.02705
   0.02922
   0.02922
   0.02705
   0.02357
   0.01960
   0.01614
   0.01355
   0.01202
   0.01157
   0.01202
   0.01088
   0.01172
   0.01355
   0.01621
   0.01948
   0.02268
   0.02506
   0.02600
   0.02506
   0.02268
   0.01948
   0.01621
   0.01355
   0.01172
   0.01088
   0.01088
   0.01050
   0.01088
   0.01202
   0.01386
   0.01633
   0.01906
   0.02140
   0.02278
   0.02278
   0.02140
   0.01906
   0.01633
   0.01386
   0.01202
   0.01088
   0.01050
    0.0038
    0.0039
    0.0043
    0.0049
    0.0056
    0.0064
    0.0071
    0.0075
    0.0075
    0.0071
    0.0064
    0.0056
    0.0049
    0.0043
    0.0039
    0.0038
    0.0039
    0.0039
    0.0041
    0.0045
    0.0050
    0.0056
    0.0062
    0.0066
    0.0068
    0.0066
    0.0062
    0.0056
    0.0050
    0.0045
    0.0041
    0.0039
    0.0043
    0.0042
    0.0043
    0.0045
    0.0048
    0.0053
    0.0057
    0.0060
    0.0062
    0.0062
    0.0060
    0.0057
    0.0053
    0.0048
    0.0045
    0.0043
    0.0049
    0.0048
    0.0048
    0.0049
    0.0050
    0.0053
    0.0055
    0.0057
    0.0059
    0.0060
    0.0059
    0.0057
    0.0055
    0.0053
    0.0050
    0.0049
    0.0056
    0.0056
    0.0056
    0.0056
    0.0056
    0.0056
    0.0057
    0.0057
    0.0058
    0.0058
    0.0058
    0.0058
    0.0057
    0.0057
    0.0056
    0.0056
    0.0064
    0.0065
    0.0066
    0.0066
    0.0065
    0.0064
    0.0062
    0.0060
    0.0059
    0.0058
    0.0058
    0.0058
    0.0059
    0.0060
    0.0062
    0.0064
    0.0071
    0.0075
    0.0078
    0.0080
    0.0078
    0.0075
    0.0071
    0.0066
    0.0062
    0.0060
    0.0058
    0.0058
    0.0060
    0.0062
    0.0066
    0.0071
    0.0075
    0.0082
    0.0088
    0.0092
    0.0092
    0.0088
    0.0082
    0.0075
    0.0068
    0.0062
    0.0059
    0.0058
    0.0059
    0.0062
    0.0068
    0.0075
    0.0075
    0.0085
    0.0095
   0.01018
   0.01048
   0.01018
    0.0095
    0.0085
    0.0075
    0.0066
    0.0060
    0.0057
    0.0057
    0.0060
    0.0066
    0.0075
    0.0071
    0.0082
    0.0095
   0.01054
   0.01119
   0.01119
   0.01054
    0.0095
    0.0082
    0.0071
    0.0062
    0.0057
    0.0055
    0.0057
    0.0062
    0.0071
    0.0064
    0.0075
    0.0088
   0.01018
   0.01119
   0.01155
   0.01119
   0.01018
    0.0088
    0.0075
    0.0064
    0.0056
    0.0053
    0.0053
    0.0056
    0.0064
    0.0056
    0.0065
    0.0078
    0.0092
   0.01048
   0.01119
   0.01119
   0.01048
    0.0092
    0.0078
    0.0065
    0.0056
    0.0050
    0.0048
    0.0050
    0.0056
    0.0049
    0.0056
    0.0066
    0.0080
    0.0092
   0.01018
   0.01054
   0.01018
    0.0092
    0.0080
    0.0066
    0.0056
    0.0049
    0.0045
    0.0045
    0.0049
    0.0043
    0.0048
    0.0056
    0.0066
    0.0078
    0.0088
    0.0095
    0.0095
    0.0088
    0.0078
    0.0066
    0.0056
    0.0048
    0.0043
    0.0041
    0.0043
    0.0039
    0.0042
    0.0048
    0.0056
    0.0065
    0.0075
    0.0082
    0.0085
    0.0082
    0.0075
    0.0065
    0.0056
    0.0048
    0.0042
    0.0039
    0.0039
    0.0038
    0.0039
    0.0043
    0.0049
    0.0056
    0.0064
    0.0071
    0.0075
    0.0075
    0.0071
    0.0064
    0.0056
    0.0049
    0.0043
    0.0039
    0.0038
 0.6647E-3
 0.6714E-3
 0.7230E-3
 0.8235E-3
 0.9311E-3
    0.0010
    0.0011
    0.0012
    0.0012
    0.0011
    0.0010
 0.9311E-3
 0.8235E-3
 0.7230E-3
 0.6714E-3
 0.6647E-3
 0.6714E-3
 0.6714E-3
 0.6807E-3
 0.7382E-3
 0.8074E-3
 0.8818E-3
 0.9557E-3
    0.0010
    0.0010
    0.0010
 0.9558E-3
 0.8818E-3
 0.8074E-3
 0.7383E-3
 0.6807E-3
 0.6714E-3
 0.7230E-3
 0.7214E-3
 0.7230E-3
 0.7382E-3
 0.7556E-3
 0.7857E-3
 0.8312E-3
 0.8535E-3
 0.8691E-3
 0.8691E-3
 0.8535E-3
 0.8313E-3
 0.7858E-3
 0.7556E-3
 0.7383E-3
 0.7230E-3
 0.8235E-3
 0.8194E-3
 0.8194E-3
 0.8235E-3
 0.8074E-3
 0.7857E-3
 0.7857E-3
 0.7786E-3
 0.7724E-3
 0.7780E-3
 0.7724E-3
 0.7786E-3
 0.7858E-3
 0.7858E-3
 0.8075E-3
 0.8235E-3
 0.9311E-3
 0.9651E-3
 0.9745E-3
 0.9651E-3
 0.9310E-3
 0.8818E-3
 0.8312E-3
 0.7786E-3
 0.7408E-3
 0.7294E-3
 0.7294E-3
 0.7408E-3
 0.7787E-3
 0.8313E-3
 0.8818E-3
 0.9311E-3
    0.0010
    0.0011
    0.0012
    0.0012
    0.0011
    0.0010
 0.9557E-3
 0.8535E-3
 0.7724E-3
 0.7294E-3
 0.7133E-3
 0.7294E-3
 0.7724E-3
 0.8535E-3
 0.9558E-3
    0.0010
    0.0011
    0.0013
    0.0014
    0.0014
    0.0014
    0.0013
    0.0011
    0.0010
 0.8691E-3
 0.7780E-3
 0.7294E-3
 0.7294E-3
 0.7780E-3
 0.8691E-3
    0.0010
    0.0011
    0.0012
    0.0014
    0.0016
    0.0017
    0.0017
    0.0016
    0.0014
    0.0012
    0.0010
 0.8691E-3
 0.7724E-3
 0.7408E-3
 0.7724E-3
 0.8691E-3
    0.0010
    0.0012
    0.0012
    0.0014
    0.0017
    0.0019
    0.0019
    0.0019
    0.0017
    0.0014
    0.0012
    0.0010
 0.8535E-3
 0.7786E-3
 0.7786E-3
 0.8535E-3
    0.0010
    0.0012
    0.0011
    0.0014
    0.0017
    0.0019
    0.0021
    0.0021
    0.0019
    0.0017
    0.0014
    0.0011
 0.9557E-3
 0.8312E-3
 0.7857E-3
 0.8312E-3
 0.9558E-3
    0.0011
    0.0010
    0.0013
    0.0016
    0.0019
    0.0021
    0.0022
    0.0021
    0.0019
    0.0016
    0.0013
    0.0010
 0.8818E-3
 0.7858E-3
 0.7858E-3
 0.8818E-3
    0.0010
 0.9311E-3
    0.0011
    0.0014
    0.0017
    0.0019
    0.0021
    0.0021
    0.0019
    0.0017
    0.0014
    0.0011
 0.9311E-3
 0.8074E-3
 0.7556E-3
 0.8074E-3
 0.9311E-3
 0.8235E-3
 0.9652E-3
    0.0012
    0.0014
    0.0017
    0.0019
    0.0019
    0.0019
    0.0017
    0.0014
    0.0012
 0.9651E-3
 0.8235E-3
 0.7382E-3
 0.7383E-3
 0.8235E-3
 0.7230E-3
 0.8194E-3
 0.9745E-3
    0.0012
    0.0014
    0.0016
    0.0017
    0.0017
    0.0016
    0.0014
    0.0012
 0.9745E-3
 0.8194E-3
 0.7230E-3
 0.6807E-3
 0.7230E-3
 0.6714E-3
 0.7215E-3
 0.8194E-3
 0.9651E-3
    0.0011
    0.0013
    0.0014
    0.0014
    0.0014
    0.0013
    0.0011
 0.9651E-3
 0.8194E-3
 0.7215E-3
 0.6714E-3
 0.6714E-3
 0.6647E-3
 0.6714E-3
 0.7230E-3
 0.8235E-3
 0.9311E-3
    0.0010
    0.0011
    0.0012
    0.0012
    0.0011
    0.0010
 0.9311E-3
 0.8235E-3
 0.7230E-3
 0.6714E-3
 0.6647E-3
 0.7352E-4
 0.7362E-4
 0.7873E-4
 0.9010E-4
 0.1018E-3
 0.1136E-3
 0.1248E-3
 0.1307E-3
 0.1307E-3
 0.1248E-3
 0.1136E-3
 0.1018E-3
 0.9010E-4
 0.7873E-4
 0.7362E-4
 0.7352E-4
 0.7362E-4
 0.7362E-4
 0.8013E-4
 0.9309E-4
 0.1196E-3
 0.1505E-3
 0.1823E-3
 0.2012E-3
 0.2016E-3
 0.2012E-3
 0.1823E-3
 0.1505E-3
 0.1196E-3
 0.9308E-4
 0.8013E-4
 0.7362E-4
 0.7873E-4
 0.7255E-4
 0.7874E-4
 0.9309E-4
 0.1258E-3
 0.1721E-3
 0.2188E-3
 0.2688E-3
 0.2862E-3
 0.2862E-3
 0.2688E-3
 0.2188E-3
 0.1721E-3
 0.1258E-3
 0.9308E-4
 0.7873E-4
 0.9010E-4
 0.7681E-4
 0.7682E-4
 0.9011E-4
 0.1196E-3
 0.1721E-3
 0.2263E-3
 0.2921E-3
 0.3507E-3
 0.3648E-3
 0.3507E-3
 0.2921E-3
 0.2263E-3
 0.1721E-3
 0.1196E-3
 0.9010E-4
 0.1018E-3
 0.7592E-4
 0.6629E-4
 0.7592E-4
 0.1018E-3
 0.1505E-3
 0.2188E-3
 0.2921E-3
 0.3700E-3
 0.4176E-3
 0.4176E-3
 0.3700E-3
 0.2921E-3
 0.2188E-3
 0.1505E-3
 0.1018E-3
 0.1136E-3
 0.7398E-4
 0.5524E-4
 0.5524E-4
 0.7399E-4
 0.1136E-3
 0.1823E-3
 0.2688E-3
 0.3507E-3
 0.4176E-3
 0.4460E-3
 0.4176E-3
 0.3507E-3
 0.2688E-3
 0.1823E-3
 0.1136E-3
 0.1248E-3
 0.7247E-4
 0.4865E-4
 0.4318E-4
 0.4865E-4
 0.7247E-4
 0.1248E-3
 0.2012E-3
 0.2862E-3
 0.3648E-3
 0.4176E-3
 0.4176E-3
 0.3648E-3
 0.2862E-3
 0.2012E-3
 0.1248E-3
 0.1307E-3
 0.7369E-4
 0.3972E-4
 0.3023E-4
 0.3023E-4
 0.3972E-4
 0.7369E-4
 0.1307E-3
 0.2016E-3
 0.2862E-3
 0.3507E-3
 0.3700E-3
 0.3507E-3
 0.2862E-3
 0.2016E-3
 0.1307E-3
 0.1307E-3
 0.7725E-4
 0.3866E-4
 0.2088E-4
 0.1701E-4
 0.2088E-4
 0.3866E-4
 0.7725E-4
 0.1307E-3
 0.2012E-3
 0.2688E-3
 0.2921E-3
 0.2921E-3
 0.2688E-3
 0.2012E-3
 0.1307E-3
 0.1248E-3
 0.7368E-4
 0.3866E-4
 0.1974E-4
 0.1183E-4
 0.1183E-4
 0.1974E-4
 0.3866E-4
 0.7368E-4
 0.1248E-3
 0.1823E-3
 0.2188E-3
 0.2263E-3
 0.2188E-3
 0.1823E-3
 0.1248E-3
 0.1136E-3
 0.7247E-4
 0.3971E-4
 0.2088E-4
 0.1183E-4
 0.9013E-5
 0.1183E-4
 0.2088E-4
 0.3972E-4
 0.7247E-4
 0.1136E-3
 0.1505E-3
 0.1721E-3
 0.1721E-3
 0.1505E-3
 0.1136E-3
 0.1018E-3
 0.7397E-4
 0.4864E-4
 0.3023E-4
 0.1701E-4
 0.1183E-4
 0.1183E-4
 0.1702E-4
 0.3023E-4
 0.4865E-4
 0.7398E-4
 0.1018E-3
 0.1196E-3
 0.1258E-3
 0.1196E-3
 0.1018E-3
 0.9009E-4
 0.7591E-4
 0.5523E-4
 0.4318E-4
 0.3023E-4
 0.2088E-4
 0.1974E-4
 0.2089E-4
 0.3024E-4
 0.4318E-4
 0.5524E-4
 0.7592E-4
 0.9010E-4
 0.9308E-4
 0.9308E-4
 0.9009E-4
 0.7873E-4
 0.7680E-4
 0.6628E-4
 0.5523E-4
 0.4864E-4
 0.3972E-4
 0.3866E-4
 0.3866E-4
 0.3972E-4
 0.4865E-4
 0.5524E-4
 0.6629E-4
 0.7681E-4
 0.7873E-4
 0.8013E-4
 0.7873E-4
 0.7361E-4
 0.7254E-4
 0.7681E-4
 0.7591E-4
 0.7398E-4
 0.7247E-4
 0.7369E-4
 0.7726E-4
 0.7369E-4
 0.7248E-4
 0.7398E-4
 0.7592E-4
 0.7681E-4
 0.7255E-4
 0.7362E-4
 0.7361E-4
 0.7352E-4
 0.7362E-4
 0.7873E-4
 0.9010E-4
 0.1018E-3
 0.1136E-3
 0.1248E-3
 0.1307E-3
 0.1307E-3
 0.1248E-3
 0.1136E-3
 0.1018E-3
 0.9010E-4
 0.7873E-4
 0.7362E-4
 0.7352E-4
    0.0019
    0.0019
    0.0021
    0.0024
    0.0027
    0.0030
    0.0033
    0.0035
    0.0035
    0.0033
    0.0030
    0.0027
    0.0024
    0.0021
    0.0019
    0.0019
    0.0019
    0.0019
    0.0021
    0.0023
    0.0027
    0.0031
    0.0036
    0.0039
    0.0041
    0.0039
    0.0036
    0.0031
    0.0027
    0.0023
    0.0021
    0.0019
    0.0021
    0.0020
    0.0021
    0.0023
    0.0027
    0.0032
    0.0038
    0.0043
    0.0046
    0.0046
    0.0043
    0.0038
    0.0032
    0.0027
    0.0023
    0.0021