  ABINIT 
  
  Give name for formatted input file: 
input/MoS2_single-layer_scf.in
  Give name for formatted output file:
reference_output/MoS2_single-layer_scf.out
  Give root name for generic input files:
io_files/MoS2_single-layer_scf_i
  Give root name for generic output files:
io_files/MoS2_single-layer_scf_o
  Give root name for generic temporary files:
io_files/MoS2_single-layer_scf_tmp

 isfile : WARNING -
  Finds that output file reference_output/MoS2_single-layer_scf.out
 already exists.
 new name assigned:reference_output/MoS2_single-layer_scf.outA


.Version 7.4.1 of ABINIT 
.(MPI version, prepared for a x86_64_linux_gnu4.8 computer) 

.Copyright (C) 1998-2013 ABINIT group . 
 ABINIT comes with ABSOLUTELY NO WARRANTY.
 It is free software, and you are welcome to redistribute it
 under certain conditions (GNU General Public License,
 see ~abinit/COPYING or http://www.gnu.org/copyleft/gpl.txt).

 ABINIT is a project of the Universite Catholique de Louvain,
 Corning Inc. and other collaborators, see ~abinit/doc/developers/contributors.txt .
 Please read ~abinit/doc/users/acknowledgments.html for suggested
 acknowledgments of the ABINIT effort.
 For more information, see http://www.abinit.org .

.Starting date : Tue 21 Jul 2015.
- ( at 17h22 )
  

 ++++++++++++++++++++++++++++++++++++++++++++++++++++++++++++++++++++++++++++++

 === Build Information === 
  Version       : 7.4.1
  Build target  : x86_64_linux_gnu4.8
  Build date    : 20150508

 === Compiler Suite === 
  C compiler       : gnu4.8
  CFLAGS           :  -g -O2 -mtune=native -march=native
  C++ compiler     : gnu4.8
  CXXFLAGS         :  -g -O2 -mtune=native -march=native
  Fortran compiler : gnu4.8
  FCFLAGS          :  -g -ffree-line-length-none
  FC_LDFLAGS       : 

 === Optimizations === 
  Debug level        : basic
  Optimization level : standard
  Architecture       : unknown_unknown

 === MPI === 
  Parallel build : yes
  Parallel I/O   : auto
  Time tracing   : no
  GPU support    : no

 === Connectors / Fallbacks === 
  Connectors on : yes
  Fallbacks on  : yes
  DFT flavor    : none
  FFT flavor    : none
  LINALG flavor : netlib
  MATH flavor   : none
  TIMER flavor  : abinit
  TRIO flavor   : none

 === Experimental features === 
  Bindings            : no
  Exports             : no
  GW double-precision : no

 ++++++++++++++++++++++++++++++++++++++++++++++++++++++++++++++++++++++++++++++


 ++++++++++++++++++++++++++++++++++++++++++++++++++++++++++++++++++++++++++++++
 Default optimizations:
   -O2 -mtune=native -march=native


 ++++++++++++++++++++++++++++++++++++++++++++++++++++++++++++++++++++++++++++++


 ++++++++++++++++++++++++++++++++++++++++++++++++++++++++++++++++++++++++++++++
 CPP options activated during the build:

                    CC_GNU                    FC_GNU HAVE_FC_ALLOCATABLE_DT...

      HAVE_FC_COMMAND_LINE        HAVE_FC_CONTIGUOUS           HAVE_FC_CPUTIME

              HAVE_FC_EXIT             HAVE_FC_FLUSH             HAVE_FC_GAMMA

            HAVE_FC_GETENV          HAVE_FC_INT_QUAD             HAVE_FC_IOMSG

     HAVE_FC_ISO_C_BINDING        HAVE_FC_LONG_LINES              HAVE_FC_NULL

         HAVE_FC_STREAM_IO          HAVE_FORTRAN2003               HAVE_LINALG

        HAVE_LINALG_SERIAL                  HAVE_MPI                 HAVE_MPI2

               HAVE_MPI_IO HAVE_MPI_TYPE_CREATE_S...             HAVE_OS_LINUX

                HAVE_TIMER         HAVE_TIMER_ABINIT            HAVE_TIMER_MPI

         HAVE_TIMER_SERIAL
 ++++++++++++++++++++++++++++++++++++++++++++++++++++++++++++++++++++++++++++++

- input  file    -> input/MoS2_single-layer_scf.in
- output file    -> reference_output/MoS2_single-layer_scf.outA
- root for input  files -> io_files/MoS2_single-layer_scf_i
- root for output files -> io_files/MoS2_single-layer_scf_o

-instrng :    34 lines of input have been read from file input/MoS2_single-layer_scf.in


 iofn2 : Please give name of formatted atomic psp file
 iofn2 : for atom type   1 , psp file is 42mo.14.hgh

 iofn2 : Please give name of formatted atomic psp file
 iofn2 : for atom type   2 , psp file is 16s.6.hgh
  read the values zionpsp= 14.0 , pspcod=   3 , lmax=   2
  read the values zionpsp=  6.0 , pspcod=   3 , lmax=   1

 inpspheads : deduce mpsang  =   3, n1xccc  =   0.

 invars1m : enter jdtset=     0
 invars1 : treat image number     1

 symlatt : the Bravais lattice is hP (primitive hexagonal)
  xcart  is defined in input file
 ingeo : takes atomic coordinates from input array xcart

 symlatt : the Bravais lattice is hP (primitive hexagonal)

 symlatt : the Bravais lattice is hP (primitive hexagonal)
 symspgr : the symmetry operation no.   1 is the identity
 symaxes : the symmetry operation no.   2 is a tertiary 2-axis
 symspgr : the symmetry operation no.   3 is a -6 axis
 symplanes : the symmetry operation no.   4 is a secondary m plane
 symaxes : the symmetry operation no.   5 is a 3-axis
 symaxes : the symmetry operation no.   6 is a tertiary 2-axis
 symplanes : the symmetry operation no.   7 is a primary m plane
 symplanes : the symmetry operation no.   8 is a secondary m plane
 symaxes : the symmetry operation no.   9 is a 3-axis
 symaxes : the symmetry operation no.  10 is a tertiary 2-axis
 symspgr : the symmetry operation no.  11 is a -6 axis
 symplanes : the symmetry operation no.  12 is a secondary m plane
 symspgr : spgroup= 187  P-6 m 2   (=D3h^1)
 getkgrid : length of smallest supercell vector (bohr)=    3.552229E+01
       Simple Lattice Grid
 symkpt : found identity, with number  1
 invars2: take the default value of fband=  1.25000000E-01
 getkgrid : length of smallest supercell vector (bohr)=    3.552229E+01
       Simple Lattice Grid
 symkpt : found identity, with number  1
  dtset%nelect=   26.000000000000000     
 chkneu : initialized the occupation numbers for occopt=    1
    spin-unpolarized case :
  2.00  2.00  2.00  2.00  2.00  2.00  2.00  2.00  2.00  2.00  2.00  2.00
  2.00  0.00
  mpi_setup : enter 
 mpi_setup1: mkmem  undefined in the input file. Use default mkmem  = nkpt
 mpi_setup1: With nkpt_me=    7 and mkmem  =     7, ground state wf handled in core.
 mpi_setup1: mkqmem undefined in the input file. Use default mkqmem = nkpt
 mpi_setup1: With nkpt_me=    7 and mkqmem =     7, ground state wf handled in core.
 mpi_setup1: mk1mem undefined in the input file. Use default mk1mem = nkpt
 mpi_setup1: With nkpt_me=    7 and mk1mem =     7, ground state wf handled in core.

 getng.F90:200:WARNING
   The second and third dimension of the FFT grid,    0    0  were imposed to be multiple of the number of processors for the FFT,    1
 For input ecut=  1.500000E+01 best grid ngfft=      24      24     108
       max ecut=  1.598876E+01

 ==== FFT mesh ====
  FFT mesh divisions ........................    24   24  108
  Augmented FFT divisions ...................    25   25  108
  FFT algorithm .............................   112
  FFT cache size ............................    16
 getmpw: optimal value of mpw=    2541

 Symmetries : space group P-6 m 2 (#187); Bravais hP (primitive hexag.)

 getdim_nloc : deduce lmnmax  =  18, lnmax  =   6,
                      lmnmaxso=  34, lnmaxso=  10.
 setmqgrid : COMMENT -
  The number of points "mqgrid" in reciprocal space used for the
  description of the pseudopotentials has been set automatically
  by abinit to :     5231.
 memory : analysis of memory needs
================================================================================
 Values of the parameters that define the memory need of the present run
   intxc =         0  ionmov =         0    iscf =         7 xclevel =         1
  lmnmax =         6   lnmax =         6   mband =        14  mffmem =         1
P  mgfft =       108   mkmem =         7 mpssoang=         3     mpw =      2541
  mqgrid =      5231   natom =         3    nfft =     62208    nkpt =         7
  nloalg =         4  nspden =         1 nspinor =         1  nsppol =         1
    nsym =        12  n1xccc =         0  ntypat =         2  occopt =         1
================================================================================
P This job should need less than                      23.444 Mbytes of memory.
  Rough estimation (10% accuracy) of disk space for files :
_ WF disk file :      3.802 Mbytes ; DEN or POT disk file :      0.477 Mbytes.
================================================================================

 Biggest array : f_fftgr(disk), with      7.5958 MBytes.
 memana : allocated an array of      7.596 Mbytes, for testing purposes.
 memana : allocated      23.444 Mbytes, for testing purposes.
 The job will continue.
--------------------------------------------------------------------------------
------------- Echo of variables that govern the present computation ------------
--------------------------------------------------------------------------------
-
- outvars: echo of selected default values                                      
-   accesswff0 =  0 , fftalg0 =112 , wfoptalg0 =  0
-
- outvars: echo of global parameters not present in the input file              
-  max_nthreads =    0
-
 -outvars: echo values of preprocessed input variables --------
            acell      5.9203808995E+00  5.9203808994E+00  3.0000000000E+01 Bohr
              amu      9.59400000E+01  3.20660000E+01
           diemac      4.50000000E+00
             ecut      1.50000000E+01 Hartree
           istwfk        2    0    0    3    0    0    0
              kpt      0.00000000E+00  0.00000000E+00  0.00000000E+00
                       1.66666667E-01  0.00000000E+00  0.00000000E+00
                       3.33333333E-01  0.00000000E+00  0.00000000E+00
                       5.00000000E-01  0.00000000E+00  0.00000000E+00
                       1.66666667E-01  1.66666667E-01  0.00000000E+00
                       3.33333333E-01  1.66666667E-01  0.00000000E+00
                       3.33333333E-01  3.33333333E-01  0.00000000E+00
         kptrlatt        6    0    0      0    6    0      0    0    1
          kptrlen      3.55222854E+01
P           mkmem           7
            natom           3
            nband          14
            ngfft          24      24     108
             nkpt           7
            nstep         100
             nsym          12
           ntypat           2
              occ      2.000000  2.000000  2.000000  2.000000  2.000000  2.000000
                       2.000000  2.000000  2.000000  2.000000  2.000000  2.000000
                       2.000000  0.000000
           prtvol           3
            rprim      1.0000000000E+00  0.0000000000E+00  0.0000000000E+00
                      -5.0000000000E-01  8.6602540378E-01  0.0000000000E+00
                       0.0000000000E+00  0.0000000000E+00  1.0000000000E+00
          spgroup         187
           symrel      1  0  0   0  1  0   0  0  1       0 -1  0  -1  0  0   0  0 -1
                      -1 -1  0   1  0  0   0  0 -1      -1  0  0   1  1  0   0  0  1
                       0  1  0  -1 -1  0   0  0  1       1  1  0   0 -1  0   0  0 -1
                       1  0  0   0  1  0   0  0 -1       0 -1  0  -1  0  0   0  0  1
                      -1 -1  0   1  0  0   0  0  1      -1  0  0   1  1  0   0  0 -1
                       0  1  0  -1 -1  0   0  0 -1       1  1  0   0 -1  0   0  0  1
           toldfe      1.00000000E-08 Hartree
            typat      1  2  2
              wtk        0.02778    0.16667    0.16667    0.08333    0.16667    0.33333
                         0.05556
           xangst      0.0000000000E+00  0.0000000000E+00  0.0000000000E+00
                       1.5664653191E+00  9.0439917365E-01  1.5521205663E+00
                       1.5664653191E+00  9.0439917365E-01 -1.5521205663E+00
            xcart      0.0000000000E+00  0.0000000000E+00  0.0000000000E+00
                       2.9601904497E+00  1.7090667530E+00  2.9330827955E+00
                       2.9601904497E+00  1.7090667530E+00 -2.9330827955E+00
             xred      0.0000000000E+00  0.0000000000E+00  0.0000000000E+00
                       6.6666666666E-01  3.3333333334E-01  9.7769426517E-02
                       6.6666666666E-01  3.3333333334E-01 -9.7769426517E-02
            znucl       42.00000   16.00000

================================================================================

 chkinp: machine precision is   2.2204460492503131E-16

 chkinp: Checking input parameters for consistency.
 DATA TYPE INFORMATION: 
 REAL:      Data type name: REAL(DP) 
            Kind value:      8
            Precision:      15
            Smallest nonnegligible quantity relative to 1:  0.22204460E-15
            Smallest positive number:                       0.22250739-307
            Largest representable number:                   0.17976931+309
 INTEGER:   Data type name: INTEGER(default) 
            Kind value: 4
            Bit size:   32
            Largest representable number: 2147483647
 LOGICAL:   Data type name: LOGICAL 
            Kind value: 4
 CHARACTER: Data type name: CHARACTER             Kind value: 1
 ==== OpenMP parallelism is OFF ====
 
  ==== Using MPI-2 specifications ==== 
  MPI-IO support is ON
  xmpi_tag_ub ................   2147483647
  xmpi_bsize_ch ..............            1
  xmpi_bsize_int .............            4
  xmpi_bsize_sp ..............            4
  xmpi_bsize_dp ..............            8
  xmpi_bsize_spc .............            8
  xmpi_bsize_dpc .............           16
  xmpio_bsize_frm ............            4
  xmpi_address_kind ..........            8
  xmpi_offset_kind ...........            8
  MPI_WTICK ..................    9.9999999999999995E-007

================================================================================
== DATASET  1 ==================================================================
-   nproc =    1

 setmqgrid : COMMENT -
  The number of points "mqgrid" in reciprocal space used for the
  description of the pseudopotentials has been set automatically
  by abinit to :     5231.

 getdim_nloc : deduce lmnmax  =  18, lnmax  =   6,
                      lmnmaxso=  34, lnmaxso=  10.
 Exchange-correlation functional for the present dataset will be:
  LDA: new Teter (4/93) with spin-polarized option - ixc=1
 Citation for XC functional:
  S. Goedecker, M. Teter, J. Huetter, PRB 54, 1703 (1996)

 Unit cell volume ucvol=  9.1064935E+02 bohr^3
 Angles (23,13,12)=  9.00000000E+01  9.00000000E+01  1.20000000E+02 degrees

 getcut: wavevector=  0.0000  0.0000  0.0000  ngfft=  24  24 108
         ecut(hartree)=     15.000   => boxcut(ratio)=   2.06487
- pspini: atom type   1  psp file is 42mo.14.hgh
- pspatm: opening atomic psp file    42mo.14.hgh
- Hartwigsen-Goedecker-Hutter psp for Mo,  from PRB58, 3641 (1998)
- 42.00000  14.00000     10605                znucl, zion, pspdat
    3    1    2    0      2001   0.00000      pspcod,pspxc,lmax,lloc,mmax,r2well
 rloc=   0.4300000
 cc1 =  16.2374520; cc2 =   1.4965360; cc3 =   0.0000000; cc4 =   0.0000000
 rrs =   0.3762550; h11s=   3.3624260; h22s=  -5.2892760; h33s=   0.0000000
 rrp =   0.3617340; h11p=  -0.3795710; h22p=  -4.0677130; h33p=   0.0000000
                    k11p=   0.3786810; k22p=  -0.1245610; k33p=   0.0000000
 rrd =   0.5258280; h11d=  -1.5432110; h22d=   1.0743880; h33d=   0.0000000
                    k11d=   0.0144600; k22d=  -0.0147690; k33d=   0.0000000
-  Local part computed in reciprocal space.

 pspatm : COMMENT -
  the projectors are not normalized,
  so that the KB energies are not consistent with 
  definition in PRB44, 8503 (1991). 
  However, this does not influence the results obtained hereafter.
 pspatm: epsatm=   42.21916586
         --- l  ekb(1:nproj) -->
             0   -1.085688    0.721857
             1   -0.208345    0.013056
             2   -0.256316    0.182427
 pspatm: atomic psp has been read  and splines computed

- pspini: atom type   2  psp file is 16s.6.hgh
- pspatm: opening atomic psp file    16s.6.hgh
- Hartwigsen-Goedecker-Hutter psp for S,  from PRB58, 3641 (1998)
- 16.00000   6.00000     10605                znucl, zion, pspdat
    3    1    1    0      2001   0.00000      pspcod,pspxc,lmax,lloc,mmax,r2well
 rloc=   0.4200000
 cc1 =  -6.5544920; cc2 =   0.0000000; cc3 =   0.0000000; cc4 =   0.0000000
 rrs =   0.3617570; h11s=   7.9053030; h22s=   4.4716980; h33s=   0.0000000
 rrp =   0.4052850; h11p=   3.8665790; h22p=   0.0000000; h33p=   0.0000000
                    k11p=   0.0053720; k22p=   0.0220620; k33p=   0.0000000
-  Local part computed in reciprocal space.

 pspatm : COMMENT -
  the projectors are not normalized,
  so that the KB energies are not consistent with 
  definition in PRB44, 8503 (1991). 
  However, this does not influence the results obtained hereafter.
 pspatm: epsatm=   -0.99803221
         --- l  ekb(1:nproj) -->
             0    0.629324    1.447842
             1    0.299754
 pspatm: atomic psp has been read  and splines computed

   1.04580064E+03                                ecore*ucvol(ha*bohr**3)
   1  1  1  1  1  1  1  1  1  1  1  1
   2  3  3  2  2  3  3  2  2  3  3  2
   3  2  2  3  3  2  2  3  3  2  2  3
 wfconv:    14 bands initialized randomly with npw=  1263, for ikpt=     1
 wfconv:    14 bands initialized randomly with npw=  2501, for ikpt=     2
 wfconv:    14 bands initialized randomly with npw=  2541, for ikpt=     3
 wfconv:    14 bands initialized randomly with npw=  1265, for ikpt=     4
 wfconv:    14 bands initialized randomly with npw=  2521, for ikpt=     5
 wfconv:    14 bands initialized randomly with npw=  2532, for ikpt=     6
 wfconv:    14 bands initialized randomly with npw=  2529, for ikpt=     7

_setup2: Arith. and geom. avg. npw (full set) are    2525.972    2525.941
 initro : for itypat=  1, take decay length=      0.7500,
 initro : indeed, coreel=     28.0000, nval= 14 and densty=  0.0000E+00.
 initro : for itypat=  2, take decay length=      0.9000,
 initro : indeed, coreel=     10.0000, nval=  6 and densty=  0.0000E+00.

================================================================================

 getcut: wavevector=  0.0000  0.0000  0.0000  ngfft=  24  24 108
         ecut(hartree)=     15.000   => boxcut(ratio)=   2.06487

 ewald : nr and ng are    4 and   45

 ITER STEP NUMBER     1
 vtorho : nnsclo_now=  2, note that nnsclo,dbl_nnsclo,istep=  0 0  1
 Non-SCF iterations; kpt #     1  , k= (  0.00000  0.00000  0.00000  ), band residuals:
 res:  1.37E+00  1.89E+00  1.09E+00  7.03E-01  1.71E+00  5.80E-01  3.09E-01  3.80E-01
 res:  1.80E-01  4.00E-01  4.37E-01  1.85E-01  3.64E-01  1.92E-01
 ene: -2.28E+00 -1.43E+00 -1.25E+00 -1.19E+00 -4.48E-01 -3.88E-01 -1.86E-01 -1.07E-01
 ene: -3.82E-02  9.04E-03  6.75E-02  2.21E-01  3.25E-01  4.45E-01
 res:  1.46E-02  9.10E-03  2.41E-02  2.14E-02  5.93E-03  2.19E-02  9.54E-03  1.39E-02
 res:  3.11E-02  3.38E-02  1.94E-02  2.67E-02  6.14E-02  1.26E-02
 ene: -2.55E+00 -1.62E+00 -1.62E+00 -1.62E+00 -5.86E-01 -5.58E-01 -2.93E-01 -2.38E-01
 ene: -2.20E-01 -1.91E-01 -1.64E-01 -1.40E-01 -1.11E-02  1.71E-01
 vtowfk : number of one-way 3D ffts skipped in vtowfk until now =1
     eigenvalues (hartree) for   14  bands
              after    3 non-SCF iterations with    4 CG line minimizations
 -2.5524E+00 -1.6237E+00 -1.6223E+00 -1.6192E+00 -5.8643E-01 -5.5787E-01
 -2.9271E-01 -2.3837E-01 -2.2019E-01 -1.9090E-01 -1.6440E-01 -1.3954E-01
 -1.1143E-02  1.7056E-01
 Non-SCF iterations; kpt #     2  , k= (  0.16667  0.00000  0.00000  ), band residuals:
 res:  1.83E+00  9.50E-01  1.01E+00  1.19E+00  9.94E-01  5.53E-01  3.01E-01  4.89E-01
 res:  2.20E-01  3.26E-01  3.03E-01  2.86E-01  2.42E-01  2.09E-01
 ene: -2.31E+00 -1.51E+00 -1.42E+00 -1.38E+00 -4.53E-01 -4.02E-01 -1.69E-01 -1.34E-01
 ene: -9.80E-02 -5.74E-02 -2.73E-02  6.57E-02  2.16E-01  2.84E-01
 res:  1.54E-02  5.67E-03  8.63E-03  1.10E-02  1.25E-02  1.45E-02  1.14E-02  2.42E-02
 res:  2.41E-02  1.57E-02  2.51E-02  3.59E-02  2.65E-02  7.26E-02
 ene: -2.55E+00 -1.63E+00 -1.62E+00 -1.62E+00 -5.79E-01 -5.51E-01 -2.85E-01 -2.41E-01
 ene: -2.33E-01 -2.17E-01 -1.98E-01 -1.57E-01 -1.11E-01 -1.08E-02
 vtowfk : number of one-way 3D ffts skipped in vtowfk until now =2
     eigenvalues (hartree) for   14  bands
              after    3 non-SCF iterations with    4 CG line minimizations
 -2.5494E+00 -1.6310E+00 -1.6231E+00 -1.6228E+00 -5.7945E-01 -5.5084E-01
 -2.8542E-01 -2.4119E-01 -2.3349E-01 -2.1709E-01 -1.9819E-01 -1.5671E-01
 -1.1096E-01 -1.0845E-02
 Non-SCF iterations; kpt #     3  , k= (  0.33333  0.00000  0.00000  ), band residuals:
 res:  1.65E+00  1.70E+00  7.68E-01  1.00E+00  6.81E-01  6.01E-01  1.48E+00  2.09E-01
 res:  2.53E-01  4.94E-01  2.86E-01  3.21E-01  2.47E-01  2.13E-01
 ene: -2.37E+00 -1.39E+00 -1.31E+00 -1.28E+00 -4.43E-01 -4.07E-01 -2.04E-01 -1.62E-01
 ene: -1.17E-01 -6.81E-02 -3.42E-02  5.05E-02  1.98E-01  4.72E-01
 res:  6.83E-03  7.31E-03  1.14E-02  1.45E-02  9.51E-03  1.06E-02  1.37E-02  1.65E-02
 res:  1.45E-02  3.08E-02  1.91E-02  2.42E-02  2.99E-02  8.54E-02
 ene: -2.56E+00 -1.63E+00 -1.63E+00 -1.62E+00 -5.51E-01 -5.38E-01 -2.93E-01 -2.59E-01
 ene: -2.52E-01 -2.32E-01 -1.72E-01 -1.42E-01 -1.30E-01 -3.77E-02
 vtowfk : number of one-way 3D ffts skipped in vtowfk until now =3
     eigenvalues (hartree) for   14  bands
              after    3 non-SCF iterations with    4 CG line minimizations
 -2.5552E+00 -1.6300E+00 -1.6270E+00 -1.6238E+00 -5.5107E-01 -5.3837E-01
 -2.9332E-01 -2.5870E-01 -2.5236E-01 -2.3189E-01 -1.7162E-01 -1.4193E-01
 -1.2971E-01 -3.7723E-02
 Non-SCF iterations; kpt #     4  , k= (  0.50000  0.00000  0.00000  ), band residuals:
 res:  8.61E-01  1.58E+00  1.27E+00  1.29E+00  5.43E-01  4.13E-01  5.60E-01  3.60E-01
 res:  2.25E-01  2.27E-01  5.24E-01  1.70E-01  2.60E-01  1.94E-01
 ene: -2.41E+00 -1.39E+00 -1.30E+00 -1.30E+00 -3.97E-01 -3.61E-01 -1.90E-01 -1.64E-01
 ene: -1.14E-01 -5.96E-02 -5.05E-02  4.03E-02  2.51E-01  3.99E-01
 res:  5.94E-03  1.24E-02  1.81E-02  1.13E-02  1.29E-02  1.29E-02  9.44E-03  1.46E-02
 res:  2.59E-02  2.51E-02  2.68E-02  2.81E-02  2.28E-02  5.36E-02
 ene: -2.55E+00 -1.63E+00 -1.63E+00 -1.62E+00 -5.31E-01 -5.30E-01 -2.80E-01 -2.76E-01
 ene: -2.72E-01 -2.40E-01 -1.79E-01 -1.39E-01 -1.05E-01  2.38E-02
 vtowfk : number of one-way 3D ffts skipped in vtowfk until now =4
     eigenvalues (hartree) for   14  bands
              after    3 non-SCF iterations with    4 CG line minimizations
 -2.5539E+00 -1.6300E+00 -1.6285E+00 -1.6234E+00 -5.3131E-01 -5.2986E-01
 -2.7956E-01 -2.7575E-01 -2.7157E-01 -2.3984E-01 -1.7872E-01 -1.3857E-01
 -1.0528E-01  2.3823E-02
 Non-SCF iterations; kpt #     5  , k= (  0.16667  0.16667  0.00000  ), band residuals:
 res:  1.75E+00  8.86E-01  9.20E-01  7.50E-01  5.98E-01  5.23E-01  5.06E-01  4.63E-01
 res:  3.14E-01  3.59E-01  2.04E-01  2.24E-01  2.98E-01  2.94E-01
 ene: -2.32E+00 -1.42E+00 -1.37E+00 -1.31E+00 -4.46E-01 -3.65E-01 -1.68E-01 -1.53E-01
 ene: -1.33E-01 -1.01E-01 -4.28E-02  4.87E-02  2.95E-01  3.77E-01
 res:  1.07E-02  8.67E-03  1.26E-02  1.38E-02  8.12E-03  1.69E-02  2.19E-02  1.93E-02
 res:  1.78E-02  2.02E-02  1.78E-02  1.98E-02  6.66E-02  8.10E-02
 ene: -2.55E+00 -1.63E+00 -1.63E+00 -1.62E+00 -5.57E-01 -5.42E-01 -2.87E-01 -2.62E-01
 ene: -2.45E-01 -2.13E-01 -1.82E-01 -1.44E-01 -1.13E-01 -4.13E-02
 vtowfk : number of one-way 3D ffts skipped in vtowfk until now =5
     eigenvalues (hartree) for   14  bands
              after    3 non-SCF iterations with    4 CG line minimizations
 -2.5527E+00 -1.6305E+00 -1.6264E+00 -1.6218E+00 -5.5671E-01 -5.4212E-01
 -2.8665E-01 -2.6206E-01 -2.4515E-01 -2.1297E-01 -1.8179E-01 -1.4354E-01
 -1.1288E-01 -4.1345E-02
 Non-SCF iterations; kpt #     6  , k= (  0.33333  0.16667  0.00000  ), band residuals:
 res:  1.83E+00  1.08E+00  8.78E-01  1.28E+00  1.26E+00  3.46E-01  4.08E-01  3.73E-01
 res:  3.17E-01  3.87E-01  1.78E-01  1.68E-01  3.80E-01  1.79E-01
 ene: -2.35E+00 -1.47E+00 -1.32E+00 -1.28E+00 -4.01E-01 -3.14E-01 -2.10E-01 -1.97E-01
 ene: -1.40E-01 -6.84E-02 -1.54E-02  1.69E-02  2.09E-01  2.84E-01
 res:  8.16E-03  3.00E-03  1.67E-02  1.82E-02  1.13E-02  2.04E-02  1.43E-02  1.31E-02
 res:  1.30E-02  2.78E-02  1.35E-02  1.65E-02  4.84E-02  2.93E-02
 ene: -2.55E+00 -1.63E+00 -1.63E+00 -1.62E+00 -5.33E-01 -5.27E-01 -2.96E-01 -2.85E-01
 ene: -2.46E-01 -2.36E-01 -1.76E-01 -1.56E-01 -1.42E-01 -7.72E-02
 vtowfk : number of one-way 3D ffts skipped in vtowfk until now =6
     eigenvalues (hartree) for   14  bands
              after    3 non-SCF iterations with    4 CG line minimizations
 -2.5541E+00 -1.6296E+00 -1.6271E+00 -1.6243E+00 -5.3305E-01 -5.2709E-01
 -2.9575E-01 -2.8540E-01 -2.4624E-01 -2.3578E-01 -1.7632E-01 -1.5608E-01
 -1.4191E-01 -7.7221E-02
 Non-SCF iterations; kpt #     7  , k= (  0.33333  0.33333  0.00000  ), band residuals:
 res:  1.80E+00  1.10E+00  1.10E+00  9.45E-01  1.37E+00  6.03E-01  4.62E-01  6.20E-01
 res:  4.94E-01  2.81E-01  2.67E-01  2.19E-01  2.36E-01  3.56E-01
 ene: -2.30E+00 -1.47E+00 -1.42E+00 -1.33E+00 -3.78E-01 -3.38E-01 -1.95E-01 -1.63E-01
 ene: -1.42E-01 -8.29E-02 -4.30E-02  1.12E-01  1.74E-01  3.58E-01
 res:  1.08E-02  5.79E-03  1.02E-02  1.52E-02  1.50E-02  1.49E-02  1.46E-02  1.21E-02
 res:  1.19E-02  1.44E-02  2.18E-02  3.61E-02  3.20E-02  6.10E-02
 ene: -2.55E+00 -1.63E+00 -1.63E+00 -1.63E+00 -5.26E-01 -5.21E-01 -3.12E-01 -2.61E-01
 ene: -2.37E-01 -2.21E-01 -1.99E-01 -1.70E-01 -1.60E-01 -9.30E-02
 vtowfk : number of one-way 3D ffts skipped in vtowfk until now =7
     eigenvalues (hartree) for   14  bands
              after    3 non-SCF iterations with    4 CG line minimizations
 -2.5537E+00 -1.6296E+00 -1.6273E+00 -1.6268E+00 -5.2618E-01 -5.2115E-01
 -3.1165E-01 -2.6147E-01 -2.3725E-01 -2.2062E-01 -1.9872E-01 -1.6968E-01
 -1.5979E-01 -9.3016E-02
 Total charge density [el/Bohr^3]
,     Maximum=    1.0586E+00  at reduced coord.    0.0000    0.0000    0.9722
,     Minimum=    1.1784E-04  at reduced coord.    0.3333    0.6667    0.4352
,  Integrated=    2.6000E+01
 ETOT  1  -87.468647861165    -8.747E+01 8.544E-02 1.497E+03
 scprqt: <Vxc>= -2.0146344E-01 hartree

Simple mixing update:
  residual square of the potential :   610.30041418970734

 ITER STEP NUMBER     2
 vtorho : nnsclo_now=  2, note that nnsclo,dbl_nnsclo,istep=  0 0  2
 Non-SCF iterations; kpt #     1  , k= (  0.00000  0.00000  0.00000  ), band residuals:
 res:  1.17E-02  9.51E-03  1.83E-03  1.78E-03  5.00E-03  6.42E-03  2.16E-02  7.91E-03
 res:  2.36E-02  4.10E-03  2.07E-02  4.76E-03  1.22E-02  3.80E-03
 ene: -1.88E+00 -1.04E+00 -1.03E+00 -1.03E+00 -5.99E-01 -5.48E-01 -2.58E-01 -1.46E-01
 ene: -1.13E-01 -1.10E-01 -8.52E-02 -5.60E-02  2.91E-02  1.48E-01
 res:  3.16E-06  2.77E-06  5.85E-07  8.64E-07  1.11E-05  5.05E-06  1.05E-04  2.05E-05
 res:  6.46E-05  2.85E-04  1.00E-04  2.39E-03  1.67E-03  1.32E-02
 ene: -1.88E+00 -1.04E+00 -1.03E+00 -1.03E+00 -5.99E-01 -5.48E-01 -2.60E-01 -1.46E-01
 ene: -1.14E-01 -1.14E-01 -8.79E-02 -8.73E-02  2.09E-02  1.23E-01
 vtowfk : number of one-way 3D ffts skipped in vtowfk until now =8
     eigenvalues (hartree) for   14  bands
              after    3 non-SCF iterations with    4 CG line minimizations
 -1.8779E+00 -1.0381E+00 -1.0259E+00 -1.0259E+00 -5.9919E-01 -5.4837E-01
 -2.6019E-01 -1.4621E-01 -1.1428E-01 -1.1421E-01 -8.7926E-02 -8.7321E-02
  2.0879E-02  1.2318E-01
 Non-SCF iterations; kpt #     2  , k= (  0.16667  0.00000  0.00000  ), band residuals:
 res:  1.04E-02  1.06E-02  3.90E-03  1.79E-03  5.62E-03  5.81E-03  1.69E-02  1.28E-02
 res:  1.32E-02  1.02E-02  7.21E-03  1.56E-02  5.81E-03  1.65E-02
 ene: -1.88E+00 -1.04E+00 -1.03E+00 -1.03E+00 -5.82E-01 -5.43E-01 -2.42E-01 -1.65E-01
 ene: -1.59E-01 -1.12E-01 -1.09E-01 -1.08E-01  2.02E-02  1.05E-01
 res:  3.96E-06  1.65E-06  2.62E-06  2.01E-06  1.06E-05  1.42E-05  1.03E-04  4.56E-05
 res:  5.67E-05  2.17E-05  3.99E-05  7.86E-05  3.31E-04  2.89E-03
 ene: -1.88E+00 -1.04E+00 -1.03E+00 -1.03E+00 -5.82E-01 -5.43E-01 -2.44E-01 -1.67E-01
 ene: -1.60E-01 -1.12E-01 -1.10E-01 -1.10E-01  1.70E-02  9.24E-02
 vtowfk : number of one-way 3D ffts skipped in vtowfk until now =9
     eigenvalues (hartree) for   14  bands
              after    3 non-SCF iterations with    4 CG line minimizations
 -1.8753E+00 -1.0355E+00 -1.0343E+00 -1.0275E+00 -5.8241E-01 -5.4334E-01
 -2.4448E-01 -1.6664E-01 -1.6023E-01 -1.1248E-01 -1.0988E-01 -1.0985E-01
  1.7048E-02  9.2433E-02
 Non-SCF iterations; kpt #     3  , k= (  0.33333  0.00000  0.00000  ), band residuals:
 res:  8.04E-03  8.93E-03  1.13E-02  3.77E-03  6.33E-03  3.38E-03  1.74E-02  6.95E-03
 res:  4.06E-03  2.07E-02  1.97E-02  6.71E-03  6.37E-03  1.92E-02
 ene: -1.88E+00 -1.05E+00 -1.03E+00 -1.03E+00 -5.45E-01 -5.32E-01 -2.46E-01 -2.20E-01
 ene: -1.99E-01 -1.42E-01 -1.32E-01 -1.06E-01 -1.32E-02  1.24E-01
 res:  2.27E-06  3.24E-06  1.64E-06  2.04E-06  6.64E-06  1.27E-05  7.34E-05  5.14E-05
 res:  4.47E-05  1.15E-05  2.01E-05  4.56E-05  1.23E-04  1.38E-04
 ene: -1.88E+00 -1.05E+00 -1.03E+00 -1.03E+00 -5.45E-01 -5.32E-01 -2.48E-01 -2.21E-01
 ene: -2.00E-01 -1.42E-01 -1.32E-01 -1.07E-01 -1.50E-02  1.22E-01
 vtowfk : number of one-way 3D ffts skipped in vtowfk until now =10
     eigenvalues (hartree) for   14  bands
              after    3 non-SCF iterations with    4 CG line minimizations
 -1.8769E+00 -1.0508E+00 -1.0313E+00 -1.0306E+00 -5.4528E-01 -5.3212E-01
 -2.4850E-01 -2.2055E-01 -2.0014E-01 -1.4193E-01 -1.3199E-01 -1.0662E-01
 -1.4984E-02  1.2199E-01
 Non-SCF iterations; kpt #     4  , k= (  0.50000  0.00000  0.00000  ), band residuals:
 res:  6.03E-03  1.44E-02  8.23E-03  4.91E-03  5.59E-03  6.44E-03  1.40E-02  1.43E-02
 res:  1.89E-02  7.74E-03  1.39E-02  1.90E-02  5.62E-03  2.07E-02
 ene: -1.88E+00 -1.06E+00 -1.03E+00 -1.03E+00 -5.25E-01 -5.22E-01 -2.79E-01 -2.47E-01
 ene: -1.94E-01 -1.53E-01 -1.32E-01 -1.07E-01 -1.41E-02  1.42E-01
 res:  2.48E-06  1.05E-05  9.76E-07  1.15E-06  4.22E-05  9.93E-06  2.46E-05  7.22E-05
 res:  7.59E-05  5.38E-05  1.15E-04  1.94E-05  2.32E-04  1.48E-03
 ene: -1.88E+00 -1.06E+00 -1.03E+00 -1.03E+00 -5.25E-01 -5.22E-01 -2.79E-01 -2.48E-01
 ene: -1.96E-01 -1.55E-01 -1.35E-01 -1.07E-01 -1.69E-02  1.33E-01
 vtowfk : number of one-way 3D ffts skipped in vtowfk until now =11
     eigenvalues (hartree) for   14  bands
              after    3 non-SCF iterations with    4 CG line minimizations
 -1.8752E+00 -1.0583E+00 -1.0330E+00 -1.0278E+00 -5.2543E-01 -5.2233E-01
 -2.7936E-01 -2.4817E-01 -1.9622E-01 -1.5465E-01 -1.3536E-01 -1.0731E-01
 -1.6876E-02  1.3273E-01
 Non-SCF iterations; kpt #     5  , k= (  0.16667  0.16667  0.00000  ), band residuals:
 res:  8.75E-03  9.59E-03  8.80E-03  3.31E-03  6.08E-03  4.30E-03  1.81E-02  5.15E-03
 res:  9.19E-03  1.59E-02  1.07E-02  1.17E-02  7.83E-03  1.73E-02
 ene: -1.88E+00 -1.05E+00 -1.03E+00 -1.03E+00 -5.55E-01 -5.35E-01 -2.31E-01 -1.98E-01
 ene: -1.94E-01 -1.63E-01 -1.25E-01 -1.11E-01  6.56E-03  8.90E-02
 res:  4.82E-06  3.75E-06  1.02E-06  2.14E-06  8.83E-06  3.08E-05  5.78E-05  1.67E-05
 res:  4.06E-05  3.33E-05  4.76E-05  1.77E-05  1.47E-04  2.67E-04
 ene: -1.88E+00 -1.05E+00 -1.03E+00 -1.03E+00 -5.55E-01 -5.35E-01 -2.33E-01 -1.98E-01
 ene: -1.95E-01 -1.64E-01 -1.25E-01 -1.11E-01  3.71E-03  8.70E-02
 vtowfk : number of one-way 3D ffts skipped in vtowfk until now =12
     eigenvalues (hartree) for   14  bands
              after    3 non-SCF iterations with    4 CG line minimizations
 -1.8759E+00 -1.0454E+00 -1.0318E+00 -1.0317E+00 -5.5533E-01 -5.3494E-01
 -2.3250E-01 -1.9800E-01 -1.9546E-01 -1.6351E-01 -1.2545E-01 -1.1119E-01
  3.7104E-03  8.6954E-02
 Non-SCF iterations; kpt #     6  , k= (  0.33333  0.16667  0.00000  ), band residuals:
 res:  6.56E-03  1.20E-02  8.55E-03  7.50E-03  6.90E-03  2.64E-03  7.21E-03  2.39E-02
 res:  1.80E-02  5.78E-03  2.36E-02  7.97E-03  1.52E-02  2.74E-02
 ene: -1.88E+00 -1.05E+00 -1.04E+00 -1.03E+00 -5.25E-01 -5.23E-01 -2.57E-01 -2.43E-01
 ene: -1.91E-01 -1.74E-01 -1.51E-01 -1.29E-01  9.28E-03  1.42E-01
 res:  3.02E-06  4.16E-06  1.03E-06  1.75E-06  2.23E-05  1.26E-05  6.93E-05  2.83E-05
 res:  7.84E-05  1.98E-05  3.54E-05  2.89E-05  1.91E-04  9.59E-04
 ene: -1.88E+00 -1.05E+00 -1.04E+00 -1.03E+00 -5.25E-01 -5.23E-01 -2.59E-01 -2.44E-01
 ene: -1.93E-01 -1.74E-01 -1.52E-01 -1.29E-01  6.87E-03  1.36E-01
 vtowfk : number of one-way 3D ffts skipped in vtowfk until now =13
     eigenvalues (hartree) for   14  bands
              after    3 non-SCF iterations with    4 CG line minimizations
 -1.8756E+00 -1.0545E+00 -1.0371E+00 -1.0280E+00 -5.2475E-01 -5.2296E-01
 -2.5883E-01 -2.4364E-01 -1.9297E-01 -1.7405E-01 -1.5226E-01 -1.2915E-01
  6.8711E-03  1.3647E-01
 Non-SCF iterations; kpt #     7  , k= (  0.33333  0.33333  0.00000  ), band residuals:
 res:  6.92E-03  8.37E-03  1.06E-02  8.05E-03  2.62E-03  5.25E-03  1.67E-02  2.13E-02
 res:  1.16E-02  1.77E-02  5.08E-03  8.33E-03  1.84E-02  3.03E-02
 ene: -1.87E+00 -1.05E+00 -1.04E+00 -1.03E+00 -5.20E-01 -5.11E-01 -2.56E-01 -2.31E-01
 ene: -2.17E-01 -1.82E-01 -1.81E-01 -1.37E-01  4.60E-02  1.42E-01
 res:  5.75E-06  3.40E-06  1.72E-06  1.64E-06  1.81E-05  1.13E-05  5.98E-05  8.03E-05
 res:  6.30E-05  3.17E-05  1.26E-05  2.92E-05  5.84E-04  1.05E-03
 ene: -1.88E+00 -1.05E+00 -1.05E+00 -1.03E+00 -5.20E-01 -5.11E-01 -2.58E-01 -2.33E-01
 ene: -2.19E-01 -1.83E-01 -1.81E-01 -1.37E-01  4.14E-02  1.38E-01
 vtowfk : number of one-way 3D ffts skipped in vtowfk until now =14
     eigenvalues (hartree) for   14  bands
              after    3 non-SCF iterations with    4 CG line minimizations
 -1.8750E+00 -1.0513E+00 -1.0450E+00 -1.0269E+00 -5.2008E-01 -5.1080E-01
 -2.5810E-01 -2.3290E-01 -2.1891E-01 -1.8290E-01 -1.8082E-01 -1.3707E-01
  4.1354E-02  1.3762E-01
 Total charge density [el/Bohr^3]
,     Maximum=    7.3689E-01  at reduced coord.    0.9167    0.8333    0.0000
,     Minimum=    4.8463E-07  at reduced coord.    0.5000    0.0000    0.4907
,  Integrated=    2.6000E+01
 ETOT  2  -87.241758275852     2.269E-01 1.318E-02 6.057E+03
 scprqt: <Vxc>= -1.8864565E-01 hartree

 Pulay update with  1 previous iterations:
 mixing of old trial potential : alpha(m:m-4)=  0.408      0.592

 ITER STEP NUMBER     3
 vtorho : nnsclo_now=  1, note that nnsclo,dbl_nnsclo,istep=  0 0  3
 Non-SCF iterations; kpt #     1  , k= (  0.00000  0.00000  0.00000  ), band residuals:
 res:  2.44E-03  6.94E-03  5.10E-04  4.56E-04  2.82E-03  6.54E-03  5.76E-03  2.47E-03
 res:  7.77E-03  3.94E-03  2.06E-03  3.75E-03  3.41E-03  8.49E-03
 ene: -2.18E+00 -1.31E+00 -1.30E+00 -1.30E+00 -5.83E-01 -5.25E-01 -2.78E-01 -1.76E-01
 ene: -1.75E-01 -1.22E-01 -1.22E-01 -1.20E-01 -6.14E-02  6.16E-02
 vtowfk : number of one-way 3D ffts skipped in vtowfk until now =15
     eigenvalues (hartree) for   14  bands
              after    2 non-SCF iterations with    4 CG line minimizations
 -2.1807E+00 -1.3057E+00 -1.3027E+00 -1.3027E+00 -5.8348E-01 -5.2480E-01
 -2.7801E-01 -1.7594E-01 -1.7523E-01 -1.2218E-01 -1.2194E-01 -1.2039E-01
 -6.1417E-02  6.1551E-02
 Non-SCF iterations; kpt #     2  , k= (  0.16667  0.00000  0.00000  ), band residuals:
 res:  2.34E-03  6.28E-03  2.21E-03  8.00E-04  3.71E-03  5.80E-03  6.02E-03  2.27E-03
 res:  6.23E-03  3.68E-03  2.29E-03  1.09E-03  3.33E-03  5.62E-03
 ene: -2.18E+00 -1.31E+00 -1.30E+00 -1.30E+00 -5.67E-01 -5.20E-01 -2.63E-01 -1.99E-01
 ene: -1.73E-01 -1.57E-01 -1.44E-01 -9.06E-02 -7.21E-02  2.92E-02
 vtowfk : number of one-way 3D ffts skipped in vtowfk until now =16
     eigenvalues (hartree) for   14  bands
              after    2 non-SCF iterations with    4 CG line minimizations
 -2.1783E+00 -1.3074E+00 -1.3044E+00 -1.3036E+00 -5.6702E-01 -5.1954E-01
 -2.6253E-01 -1.9897E-01 -1.7345E-01 -1.5692E-01 -1.4353E-01 -9.0588E-02
 -7.2108E-02  2.9239E-02
 Non-SCF iterations; kpt #     3  , k= (  0.33333  0.00000  0.00000  ), band residuals:
 res:  1.74E-03  5.23E-03  1.46E-03  4.43E-03  4.96E-03  3.79E-03  5.17E-03  2.51E-03
 res:  5.31E-03  5.06E-04  3.13E-03  5.33E-03  3.47E-03  4.31E-03
 ene: -2.18E+00 -1.32E+00 -1.31E+00 -1.30E+00 -5.30E-01 -5.08E-01 -2.69E-01 -2.20E-01
 ene: -2.04E-01 -1.75E-01 -1.14E-01 -1.10E-01 -1.05E-01  2.52E-02
 vtowfk : number of one-way 3D ffts skipped in vtowfk until now =17
     eigenvalues (hartree) for   14  bands
              after    2 non-SCF iterations with    4 CG line minimizations
 -2.1809E+00 -1.3173E+00 -1.3060E+00 -1.3025E+00 -5.3036E-01 -5.0791E-01
 -2.6875E-01 -2.1994E-01 -2.0428E-01 -1.7454E-01 -1.1425E-01 -1.1021E-01
 -1.0533E-01  2.5210E-02
 Non-SCF iterations; kpt #     4  , k= (  0.50000  0.00000  0.00000  ), band residuals:
 res:  1.13E-03  6.67E-03  1.70E-03  3.47E-03  2.60E-03  5.53E-03  3.10E-03  3.88E-03
 res:  5.25E-03  5.74E-04  3.03E-03  3.47E-03  4.45E-03  3.85E-03
 ene: -2.18E+00 -1.32E+00 -1.31E+00 -1.30E+00 -5.08E-01 -5.01E-01 -2.82E-01 -2.40E-01
 ene: -2.19E-01 -1.87E-01 -1.20E-01 -8.99E-02 -8.75E-02  8.19E-02
 vtowfk : number of one-way 3D ffts skipped in vtowfk until now =18
     eigenvalues (hartree) for   14  bands
              after    2 non-SCF iterations with    4 CG line minimizations
 -2.1794E+00 -1.3218E+00 -1.3073E+00 -1.3012E+00 -5.0791E-01 -5.0084E-01
 -2.8235E-01 -2.4028E-01 -2.1894E-01 -1.8672E-01 -1.2042E-01 -8.9876E-02
 -8.7530E-02  8.1850E-02
 Non-SCF iterations; kpt #     5  , k= (  0.16667  0.16667  0.00000  ), band residuals:
 res:  1.93E-03  4.20E-03  5.15E-03  1.48E-03  4.75E-03  4.42E-03  6.44E-03  1.72E-03
 res:  4.34E-03  1.30E-03  4.82E-03  3.24E-03  2.42E-03  4.54E-03
 ene: -2.18E+00 -1.31E+00 -1.31E+00 -1.30E+00 -5.40E-01 -5.11E-01 -2.57E-01 -2.04E-01
 ene: -2.04E-01 -1.84E-01 -1.38E-01 -9.76E-02 -8.58E-02  1.15E-02
 vtowfk : number of one-way 3D ffts skipped in vtowfk until now =19
     eigenvalues (hartree) for   14  bands
              after    2 non-SCF iterations with    4 CG line minimizations
 -2.1795E+00 -1.3140E+00 -1.3062E+00 -1.3030E+00 -5.4025E-01 -5.1077E-01
 -2.5742E-01 -2.0419E-01 -2.0398E-01 -1.8385E-01 -1.3835E-01 -9.7616E-02
 -8.5793E-02  1.1452E-02
 Non-SCF iterations; kpt #     6  , k= (  0.33333  0.16667  0.00000  ), band residuals:
 res:  1.36E-03  5.85E-03  2.32E-03  3.80E-03  2.55E-03  5.70E-03  4.31E-03  2.49E-03
 res:  5.87E-03  2.17E-03  3.30E-03  3.06E-03  3.73E-03  4.93E-03
 ene: -2.18E+00 -1.32E+00 -1.31E+00 -1.30E+00 -5.08E-01 -5.00E-01 -2.66E-01 -2.52E-01
 ene: -2.04E-01 -1.81E-01 -1.47E-01 -1.13E-01 -8.93E-02  2.27E-02
 vtowfk : number of one-way 3D ffts skipped in vtowfk until now =20
     eigenvalues (hartree) for   14  bands
              after    2 non-SCF iterations with    4 CG line minimizations
 -2.1798E+00 -1.3196E+00 -1.3097E+00 -1.3014E+00 -5.0847E-01 -4.9999E-01
 -2.6638E-01 -2.5157E-01 -2.0406E-01 -1.8080E-01 -1.4668E-01 -1.1310E-01
 -8.9255E-02  2.2731E-02
 Non-SCF iterations; kpt #     7  , k= (  0.33333  0.33333  0.00000  ), band residuals:
 res:  1.33E-03  5.39E-03  3.30E-03  3.52E-03  1.91E-03  6.26E-03  3.09E-03  1.97E-03
 res:  4.56E-03  5.37E-03  3.47E-03  1.99E-03  2.85E-03  5.89E-03
 ene: -2.18E+00 -1.32E+00 -1.31E+00 -1.30E+00 -4.97E-01 -4.95E-01 -2.74E-01 -2.32E-01
 ene: -2.20E-01 -1.90E-01 -1.62E-01 -1.31E-01 -7.61E-02  6.50E-03
 vtowfk : number of one-way 3D ffts skipped in vtowfk until now =21
     eigenvalues (hartree) for   14  bands
              after    2 non-SCF iterations with    4 CG line minimizations
 -2.1794E+00 -1.3171E+00 -1.3147E+00 -1.3010E+00 -4.9667E-01 -4.9462E-01
 -2.7430E-01 -2.3203E-01 -2.2005E-01 -1.9014E-01 -1.6202E-01 -1.3148E-01
 -7.6128E-02  6.4994E-03
 Total charge density [el/Bohr^3]
,     Maximum=    8.7293E-01  at reduced coord.    0.8333    0.9167    0.0000
,     Minimum=    1.1882E-06  at reduced coord.    0.5833    0.2083    0.4907
,  Integrated=    2.6000E+01
 ETOT  3  -88.352235475363    -1.110E+00 8.491E-03 5.143E+02
 scprqt: <Vxc>= -1.8475407E-01 hartree

 Pulay update with  2 previous iterations:
 mixing of old trial potential : alpha(m:m-4)=  0.604      0.208      0.188

 ITER STEP NUMBER     4
 vtorho : nnsclo_now=  1, note that nnsclo,dbl_nnsclo,istep=  0 0  4
 Non-SCF iterations; kpt #     1  , k= (  0.00000  0.00000  0.00000  ), band residuals:
 res:  1.16E-04  6.06E-05  7.55E-06  7.71E-06  3.52E-04  2.33E-04  4.64E-04  9.86E-05
 res:  1.19E-04  8.78E-05  7.71E-05  2.43E-04  1.86E-04  2.11E-04
 ene: -2.18E+00 -1.31E+00 -1.29E+00 -1.29E+00 -5.70E-01 -5.20E-01 -2.60E-01 -1.50E-01
 ene: -1.50E-01 -1.14E-01 -1.06E-01 -1.06E-01 -5.35E-02  6.74E-02
 vtowfk : number of one-way 3D ffts skipped in vtowfk until now =22
     eigenvalues (hartree) for   14  bands
              after    2 non-SCF iterations with    4 CG line minimizations
 -2.1801E+00 -1.3051E+00 -1.2936E+00 -1.2936E+00 -5.7014E-01 -5.1981E-01
 -2.6025E-01 -1.5002E-01 -1.5002E-01 -1.1385E-01 -1.0635E-01 -1.0634E-01
 -5.3459E-02  6.7411E-02
 Non-SCF iterations; kpt #     2  , k= (  0.16667  0.00000  0.00000  ), band residuals:
 res:  1.13E-04  2.81E-05  5.56E-05  7.27E-06  3.57E-04  2.54E-04  4.26E-04  1.94E-04
 res:  1.42E-04  1.22E-04  6.42E-05  1.96E-04  1.91E-04  1.91E-04
 ene: -2.18E+00 -1.30E+00 -1.30E+00 -1.29E+00 -5.54E-01 -5.14E-01 -2.45E-01 -1.76E-01
 ene: -1.61E-01 -1.33E-01 -1.28E-01 -8.52E-02 -6.32E-02  3.83E-02
 vtowfk : number of one-way 3D ffts skipped in vtowfk until now =23
     eigenvalues (hartree) for   14  bands
              after    2 non-SCF iterations with    4 CG line minimizations
 -2.1777E+00 -1.3039E+00 -1.2979E+00 -1.2945E+00 -5.5425E-01 -5.1371E-01
 -2.4507E-01 -1.7607E-01 -1.6094E-01 -1.3302E-01 -1.2755E-01 -8.5210E-02
 -6.3203E-02  3.8329E-02
 Non-SCF iterations; kpt #     3  , k= (  0.33333  0.00000  0.00000  ), band residuals:
 res:  9.23E-05  7.49E-05  1.80E-05  3.89E-05  3.72E-04  2.80E-04  2.44E-04  1.02E-04
 res:  3.63E-04  3.78E-05  1.30E-04  2.41E-04  2.68E-04  2.03E-04
 ene: -2.18E+00 -1.31E+00 -1.30E+00 -1.30E+00 -5.18E-01 -5.00E-01 -2.49E-01 -2.09E-01
 ene: -1.92E-01 -1.58E-01 -1.07E-01 -9.75E-02 -8.91E-02  3.70E-02
 vtowfk : number of one-way 3D ffts skipped in vtowfk until now =24
     eigenvalues (hartree) for   14  bands
              after    2 non-SCF iterations with    4 CG line minimizations
 -2.1805E+00 -1.3071E+00 -1.3021E+00 -1.2969E+00 -5.1832E-01 -4.9996E-01
 -2.4923E-01 -2.0896E-01 -1.9171E-01 -1.5833E-01 -1.0701E-01 -9.7495E-02
 -8.9082E-02  3.7038E-02
 Non-SCF iterations; kpt #     4  , k= (  0.50000  0.00000  0.00000  ), band residuals:
 res:  3.97E-05  1.06E-04  2.24E-05  3.24E-05  3.95E-04  2.87E-04  1.95E-04  1.34E-04
 res:  3.28E-04  3.50E-05  2.69E-04  3.69E-05  4.50E-04  4.51E-04
 ene: -2.18E+00 -1.31E+00 -1.30E+00 -1.30E+00 -4.96E-01 -4.92E-01 -2.67E-01 -2.31E-01
 ene: -2.04E-01 -1.70E-01 -1.18E-01 -8.03E-02 -7.29E-02  9.39E-02
 vtowfk : number of one-way 3D ffts skipped in vtowfk until now =25
     eigenvalues (hartree) for   14  bands
              after    2 non-SCF iterations with    4 CG line minimizations
 -2.1791E+00 -1.3112E+00 -1.3009E+00 -1.2979E+00 -4.9580E-01 -4.9177E-01
 -2.6714E-01 -2.3141E-01 -2.0368E-01 -1.7049E-01 -1.1766E-01 -8.0329E-02
 -7.2914E-02  9.3947E-02
 Non-SCF iterations; kpt #     5  , k= (  0.16667  0.16667  0.00000  ), band residuals:
 res:  8.50E-05  5.61E-05  1.76E-05  4.96E-05  3.67E-04  2.78E-04  2.64E-04  4.12E-04
 res:  5.88E-05  1.45E-04  1.05E-04  2.13E-04  2.22E-04  3.49E-04
 ene: -2.18E+00 -1.30E+00 -1.30E+00 -1.30E+00 -5.28E-01 -5.03E-01 -2.38E-01 -1.90E-01
 ene: -1.87E-01 -1.71E-01 -1.22E-01 -8.29E-02 -8.21E-02  2.24E-02
 vtowfk : number of one-way 3D ffts skipped in vtowfk until now =26
     eigenvalues (hartree) for   14  bands
              after    2 non-SCF iterations with    4 CG line minimizations
 -2.1791E+00 -1.3041E+00 -1.3025E+00 -1.2968E+00 -5.2817E-01 -5.0345E-01
 -2.3792E-01 -1.8981E-01 -1.8739E-01 -1.7139E-01 -1.2240E-01 -8.2904E-02
 -8.2128E-02  2.2446E-02
 Non-SCF iterations; kpt #     6  , k= (  0.33333  0.16667  0.00000  ), band residuals:
 res:  6.53E-05  8.31E-05  2.81E-05  3.48E-05  3.87E-04  2.91E-04  1.96E-04  6.80E-05
 res:  3.44E-04  1.13E-04  2.19E-04  2.35E-04  2.25E-04  8.59E-04
 ene: -2.18E+00 -1.31E+00 -1.30E+00 -1.30E+00 -4.97E-01 -4.91E-01 -2.50E-01 -2.37E-01
 ene: -1.92E-01 -1.71E-01 -1.35E-01 -1.10E-01 -7.02E-02  3.57E-02
 vtowfk : number of one-way 3D ffts skipped in vtowfk until now =27
     eigenvalues (hartree) for   14  bands
              after    2 non-SCF iterations with    4 CG line minimizations
 -2.1795E+00 -1.3091E+00 -1.3011E+00 -1.3000E+00 -4.9660E-01 -4.9095E-01
 -2.5039E-01 -2.3718E-01 -1.9160E-01 -1.7091E-01 -1.3540E-01 -1.1033E-01
 -7.0172E-02  3.5672E-02
 Non-SCF iterations; kpt #     7  , k= (  0.33333  0.33333  0.00000  ), band residuals:
 res:  8.62E-05  6.62E-05  4.94E-05  3.50E-05  3.91E-04  2.94E-04  3.18E-05  4.29E-05
 res:  1.58E-04  4.26E-04  3.86E-05  3.03E-04  1.28E-04  2.74E-03
 ene: -2.18E+00 -1.31E+00 -1.30E+00 -1.30E+00 -4.85E-01 -4.85E-01 -2.59E-01 -2.21E-01
 ene: -2.04E-01 -1.79E-01 -1.56E-01 -1.28E-01 -5.36E-02  1.63E-02
 vtowfk : number of one-way 3D ffts skipped in vtowfk until now =28
     eigenvalues (hartree) for   14  bands
              after    2 non-SCF iterations with    4 CG line minimizations
 -2.1791E+00 -1.3069E+00 -1.3047E+00 -1.3008E+00 -4.8519E-01 -4.8491E-01
 -2.5860E-01 -2.2135E-01 -2.0388E-01 -1.7939E-01 -1.5600E-01 -1.2833E-01
 -5.3573E-02  1.6298E-02
 Total charge density [el/Bohr^3]
,     Maximum=    8.7386E-01  at reduced coord.    0.8333    0.9167    0.0000
,     Minimum=    4.0244E-07  at reduced coord.    0.2917    0.0417    0.4907
,  Integrated=    2.6000E+01
 ETOT  4  -88.400153459556    -4.792E-02 2.740E-03 4.715E+01
 scprqt: <Vxc>= -1.8282759E-01 hartree

 Pulay update with  3 previous iterations:
 mixing of old trial potential : alpha(m:m-4)=   1.28     -0.273      0.348E-02 -0.139E-01

 ITER STEP NUMBER     5
 vtorho : nnsclo_now=  1, note that nnsclo,dbl_nnsclo,istep=  0 0  5
 Non-SCF iterations; kpt #     1  , k= (  0.00000  0.00000  0.00000  ), band residuals:
 res:  1.51E-06  7.73E-07  1.73E-07  1.22E-07  2.42E-06  6.17E-07  5.60E-06  2.49E-06
 res:  5.80E-06  6.45E-07  1.30E-05  1.53E-05  5.25E-06  4.48E-04
 ene: -2.17E+00 -1.30E+00 -1.29E+00 -1.29E+00 -5.62E-01 -5.12E-01 -2.50E-01 -1.40E-01
 ene: -1.40E-01 -1.07E-01 -9.67E-02 -9.67E-02 -4.45E-02  7.50E-02
 vtowfk : number of one-way 3D ffts skipped in vtowfk until now =29
     eigenvalues (hartree) for   14  bands
              after    2 non-SCF iterations with    4 CG line minimizations
 -2.1727E+00 -1.2968E+00 -1.2853E+00 -1.2853E+00 -5.6166E-01 -5.1211E-01
 -2.5047E-01 -1.3964E-01 -1.3964E-01 -1.0686E-01 -9.6708E-02 -9.6708E-02
 -4.4454E-02  7.4963E-02
 Non-SCF iterations; kpt #     2  , k= (  0.16667  0.00000  0.00000  ), band residuals:
 res:  1.50E-06  8.21E-07  4.98E-07  1.99E-07  2.59E-06  8.61E-07  5.35E-06  2.84E-06
 res:  8.25E-06  1.13E-05  6.40E-06  3.10E-06  4.37E-06  7.98E-05
 ene: -2.17E+00 -1.30E+00 -1.29E+00 -1.29E+00 -5.46E-01 -5.06E-01 -2.35E-01 -1.66E-01
 ene: -1.52E-01 -1.23E-01 -1.18E-01 -7.75E-02 -5.37E-02  4.65E-02
 vtowfk : number of one-way 3D ffts skipped in vtowfk until now =30
     eigenvalues (hartree) for   14  bands
              after    2 non-SCF iterations with    4 CG line minimizations
 -2.1704E+00 -1.2956E+00 -1.2896E+00 -1.2862E+00 -5.4589E-01 -5.0597E-01
 -2.3537E-01 -1.6587E-01 -1.5212E-01 -1.2293E-01 -1.1790E-01 -7.7511E-02
 -5.3724E-02  4.6520E-02
 Non-SCF iterations; kpt #     3  , k= (  0.33333  0.00000  0.00000  ), band residuals:
 res:  1.19E-06  1.24E-06  7.02E-07  4.15E-07  2.26E-06  1.43E-06  3.34E-06  3.30E-06
 res:  3.83E-06  3.18E-06  2.00E-06  5.77E-05  3.37E-06  4.22E-05
 ene: -2.17E+00 -1.30E+00 -1.29E+00 -1.29E+00 -5.10E-01 -4.92E-01 -2.39E-01 -2.00E-01
 ene: -1.82E-01 -1.49E-01 -9.92E-02 -8.84E-02 -7.90E-02  4.60E-02
 vtowfk : number of one-way 3D ffts skipped in vtowfk until now =31
     eigenvalues (hartree) for   14  bands
              after    2 non-SCF iterations with    4 CG line minimizations
 -2.1731E+00 -1.2987E+00 -1.2939E+00 -1.2886E+00 -5.1020E-01 -4.9214E-01
 -2.3937E-01 -1.9992E-01 -1.8239E-01 -1.4865E-01 -9.9155E-02 -8.8374E-02
 -7.8963E-02  4.5997E-02
 Non-SCF iterations; kpt #     4  , k= (  0.50000  0.00000  0.00000  ), band residuals:
 res:  7.72E-07  1.63E-06  6.41E-07  5.25E-07  2.26E-06  2.57E-06  2.09E-06  2.07E-06
 res:  2.98E-06  2.64E-06  2.46E-06  1.56E-06  2.31E-05  8.29E-03
 ene: -2.17E+00 -1.30E+00 -1.29E+00 -1.29E+00 -4.88E-01 -4.84E-01 -2.58E-01 -2.22E-01
 ene: -1.94E-01 -1.61E-01 -1.10E-01 -7.19E-02 -6.33E-02  8.94E-02
 vtowfk : number of one-way 3D ffts skipped in vtowfk until now =32
     eigenvalues (hartree) for   14  bands
              after    2 non-SCF iterations with    4 CG line minimizations
 -2.1717E+00 -1.3028E+00 -1.2927E+00 -1.2896E+00 -4.8785E-01 -4.8389E-01
 -2.5753E-01 -2.2240E-01 -1.9398E-01 -1.6080E-01 -1.0963E-01 -7.1855E-02
 -6.3325E-02  8.9407E-02
 Non-SCF iterations; kpt #     5  , k= (  0.16667  0.16667  0.00000  ), band residuals:
 res:  1.29E-06  9.78E-07  8.36E-07  3.98E-07  2.43E-06  1.16E-06  3.77E-06  5.43E-06
 res:  4.81E-06  3.49E-06  1.80E-05  4.28E-06  7.00E-06  3.52E-05
 ene: -2.17E+00 -1.30E+00 -1.29E+00 -1.29E+00 -5.20E-01 -4.96E-01 -2.28E-01 -1.81E-01
 ene: -1.78E-01 -1.62E-01 -1.13E-01 -7.51E-02 -7.21E-02  3.09E-02
 vtowfk : number of one-way 3D ffts skipped in vtowfk until now =33
     eigenvalues (hartree) for   14  bands
              after    2 non-SCF iterations with    4 CG line minimizations
 -2.1717E+00 -1.2957E+00 -1.2943E+00 -1.2885E+00 -5.1998E-01 -4.9565E-01
 -2.2812E-01 -1.8062E-01 -1.7780E-01 -1.6211E-01 -1.1295E-01 -7.5092E-02
 -7.2100E-02  3.0911E-02
 Non-SCF iterations; kpt #     6  , k= (  0.33333  0.16667  0.00000  ), band residuals:
 res:  9.54E-07  1.34E-06  7.37E-07  6.01E-07  2.38E-06  1.60E-06  3.32E-06  2.26E-06
 res:  4.47E-06  3.01E-06  5.30E-06  2.90E-06  1.62E-05  2.70E-04
 ene: -2.17E+00 -1.30E+00 -1.29E+00 -1.29E+00 -4.89E-01 -4.83E-01 -2.41E-01 -2.28E-01
 ene: -1.82E-01 -1.62E-01 -1.26E-01 -1.02E-01 -6.03E-02  4.42E-02
 vtowfk : number of one-way 3D ffts skipped in vtowfk until now =34
     eigenvalues (hartree) for   14  bands
              after    2 non-SCF iterations with    4 CG line minimizations
 -2.1721E+00 -1.3007E+00 -1.2928E+00 -1.2917E+00 -4.8865E-01 -4.8310E-01
 -2.4075E-01 -2.2767E-01 -1.8221E-01 -1.6192E-01 -1.2630E-01 -1.0221E-01
 -6.0253E-02  4.4220E-02
 Non-SCF iterations; kpt #     7  , k= (  0.33333  0.33333  0.00000  ), band residuals:
 res:  1.09E-06  1.09E-06  9.47E-07  7.84E-07  1.63E-06  2.32E-06  1.89E-06  1.25E-06
 res:  2.43E-06  8.13E-06  7.67E-07  4.46E-06  5.53E-06  2.21E-04
 ene: -2.17E+00 -1.30E+00 -1.30E+00 -1.29E+00 -4.77E-01 -4.77E-01 -2.49E-01 -2.12E-01
 ene: -1.94E-01 -1.70E-01 -1.48E-01 -1.20E-01 -4.34E-02  2.49E-02
 vtowfk : number of one-way 3D ffts skipped in vtowfk until now =35
     eigenvalues (hartree) for   14  bands
              after    2 non-SCF iterations with    4 CG line minimizations
 -2.1718E+00 -1.2984E+00 -1.2963E+00 -1.2926E+00 -4.7737E-01 -4.7706E-01
 -2.4877E-01 -2.1194E-01 -1.9441E-01 -1.7030E-01 -1.4751E-01 -1.1997E-01
 -4.3380E-02  2.4893E-02
 Total charge density [el/Bohr^3]
,     Maximum=    8.7445E-01  at reduced coord.    0.8333    0.9167    0.0000
,     Minimum=    3.8530E-07  at reduced coord.    0.2917    0.0417    0.4907
,  Integrated=    2.6000E+01
 ETOT  5  -88.402246278078    -2.093E-03 8.294E-03 1.022E+01
 scprqt: <Vxc>= -1.8338095E-01 hartree

 Pulay update with  4 previous iterations:
 mixing of old trial potential : alpha(m:m-4)=   1.74     -0.494     -0.152     -0.421E-01 -0.470E-01

 ITER STEP NUMBER     6
 vtorho : nnsclo_now=  1, note that nnsclo,dbl_nnsclo,istep=  0 0  6
 Non-SCF iterations; kpt #     1  , k= (  0.00000  0.00000  0.00000  ), band residuals:
 res:  9.76E-08  2.10E-07  1.90E-08  2.20E-08  4.18E-06  5.60E-06  4.16E-06  4.91E-08
 res:  8.97E-08  6.14E-06  6.95E-08  7.19E-08  3.36E-06  1.37E-04
 ene: -2.17E+00 -1.29E+00 -1.28E+00 -1.28E+00 -5.53E-01 -5.04E-01 -2.43E-01 -1.31E-01
 ene: -1.31E-01 -1.00E-01 -8.83E-02 -8.83E-02 -3.80E-02  8.14E-02
 vtowfk : number of one-way 3D ffts skipped in vtowfk until now =36
     eigenvalues (hartree) for   14  bands
              after    2 non-SCF iterations with    4 CG line minimizations
 -2.1653E+00 -1.2894E+00 -1.2777E+00 -1.2777E+00 -5.5308E-01 -5.0413E-01
 -2.4301E-01 -1.3107E-01 -1.3107E-01 -1.0028E-01 -8.8299E-02 -8.8299E-02
 -3.7987E-02  8.1381E-02
 Non-SCF iterations; kpt #     2  , k= (  0.16667  0.00000  0.00000  ), band residuals:
 res:  9.02E-08  1.83E-07  6.90E-08  2.42E-08  4.30E-06  5.33E-06  4.26E-06  5.76E-07
 res:  2.96E-06  7.82E-08  4.90E-08  4.44E-06  2.72E-06  3.98E-05
 ene: -2.16E+00 -1.29E+00 -1.28E+00 -1.28E+00 -5.37E-01 -4.98E-01 -2.28E-01 -1.58E-01
 ene: -1.44E-01 -1.14E-01 -1.09E-01 -7.04E-02 -4.68E-02  5.34E-02
 vtowfk : number of one-way 3D ffts skipped in vtowfk until now =37
     eigenvalues (hartree) for   14  bands
              after    2 non-SCF iterations with    4 CG line minimizations
 -2.1630E+00 -1.2882E+00 -1.2820E+00 -1.2786E+00 -5.3732E-01 -4.9789E-01
 -2.2776E-01 -1.5751E-01 -1.4436E-01 -1.1437E-01 -1.0946E-01 -7.0383E-02
 -4.6783E-02  5.3414E-02
 Non-SCF iterations; kpt #     3  , k= (  0.33333  0.00000  0.00000  ), band residuals:
 res:  6.73E-08  1.64E-07  1.09E-07  4.17E-08  4.45E-06  4.48E-06  1.47E-06  1.26E-06
 res:  3.04E-06  3.38E-08  4.20E-06  3.72E-07  1.66E-06  1.30E-05
 ene: -2.17E+00 -1.29E+00 -1.29E+00 -1.28E+00 -5.02E-01 -4.84E-01 -2.31E-01 -1.92E-01
 ene: -1.75E-01 -1.40E-01 -9.24E-02 -7.99E-02 -7.15E-02  5.30E-02
 vtowfk : number of one-way 3D ffts skipped in vtowfk until now =38
     eigenvalues (hartree) for   14  bands
              after    2 non-SCF iterations with    4 CG line minimizations
 -2.1657E+00 -1.2910E+00 -1.2865E+00 -1.2810E+00 -5.0161E-01 -4.8383E-01
 -2.3105E-01 -1.9198E-01 -1.7494E-01 -1.4018E-01 -9.2403E-02 -7.9886E-02
 -7.1508E-02  5.2987E-02
 Non-SCF iterations; kpt #     4  , k= (  0.50000  0.00000  0.00000  ), band residuals:
 res:  3.91E-08  2.27E-07  8.28E-08  5.03E-08  4.55E-06  4.14E-06  6.42E-07  1.12E-06
 res:  2.85E-06  4.20E-08  4.15E-06  2.41E-07  3.07E-06  3.88E-03
 ene: -2.16E+00 -1.30E+00 -1.29E+00 -1.28E+00 -4.79E-01 -4.75E-01 -2.49E-01 -2.15E-01
 ene: -1.86E-01 -1.52E-01 -1.03E-01 -6.34E-02 -5.60E-02  6.94E-02
 vtowfk : number of one-way 3D ffts skipped in vtowfk until now =39
     eigenvalues (hartree) for   14  bands
              after    2 non-SCF iterations with    4 CG line minimizations
 -2.1643E+00 -1.2951E+00 -1.2853E+00 -1.2820E+00 -4.7919E-01 -4.7543E-01
 -2.4934E-01 -2.1450E-01 -1.8641E-01 -1.5232E-01 -1.0301E-01 -6.3449E-02
 -5.6039E-02  6.9439E-02
 Non-SCF iterations; kpt #     5  , k= (  0.16667  0.16667  0.00000  ), band residuals:
 res:  6.68E-08  1.33E-07  1.38E-07  4.40E-08  4.34E-06  4.76E-06  2.39E-06  7.29E-07
 res:  2.69E-06  2.18E-06  2.97E-07  4.00E-06  1.31E-06  1.95E-05
 ene: -2.16E+00 -1.29E+00 -1.29E+00 -1.28E+00 -5.11E-01 -4.87E-01 -2.20E-01 -1.72E-01
 ene: -1.70E-01 -1.54E-01 -1.05E-01 -6.80E-02 -6.44E-02  3.79E-02
 vtowfk : number of one-way 3D ffts skipped in vtowfk until now =40
     eigenvalues (hartree) for   14  bands
              after    2 non-SCF iterations with    4 CG line minimizations
 -2.1643E+00 -1.2881E+00 -1.2869E+00 -1.2809E+00 -5.1141E-01 -4.8741E-01
 -2.1988E-01 -1.7233E-01 -1.7027E-01 -1.5432E-01 -1.0460E-01 -6.8012E-02
 -6.4447E-02  3.7880E-02
 Non-SCF iterations; kpt #     6  , k= (  0.33333  0.16667  0.00000  ), band residuals:
 res:  4.87E-08  1.97E-07  8.83E-08  6.20E-08  4.65E-06  4.10E-06  7.00E-07  3.03E-07
 res:  3.17E-06  1.52E-06  1.49E-06  3.61E-06  1.11E-06  1.24E-04
 ene: -2.16E+00 -1.29E+00 -1.29E+00 -1.28E+00 -4.80E-01 -4.75E-01 -2.32E-01 -2.19E-01
 ene: -1.75E-01 -1.54E-01 -1.18E-01 -9.54E-02 -5.23E-02  5.12E-02
 vtowfk : number of one-way 3D ffts skipped in vtowfk until now =41
     eigenvalues (hartree) for   14  bands
              after    2 non-SCF iterations with    4 CG line minimizations
 -2.1648E+00 -1.2931E+00 -1.2855E+00 -1.2841E+00 -4.8002E-01 -4.7466E-01
 -2.3247E-01 -2.1938E-01 -1.7475E-01 -1.5409E-01 -1.1839E-01 -9.5377E-02
 -5.2317E-02  5.1209E-02
 Non-SCF iterations; kpt #     7  , k= (  0.33333  0.33333  0.00000  ), band residuals:
 res:  6.56E-08  2.14E-07  5.15E-08  7.82E-08  3.90E-06  3.88E-06  8.97E-08  2.19E-07
 res:  2.27E-07  3.91E-06  2.62E-07  3.87E-06  1.48E-07  1.55E-04
 ene: -2.16E+00 -1.29E+00 -1.29E+00 -1.29E+00 -4.69E-01 -4.68E-01 -2.40E-01 -2.04E-01
 ene: -1.86E-01 -1.63E-01 -1.40E-01 -1.13E-01 -3.55E-02  3.25E-02
 vtowfk : number of one-way 3D ffts skipped in vtowfk until now =42
     eigenvalues (hartree) for   14  bands
              after    2 non-SCF iterations with    4 CG line minimizations
 -2.1644E+00 -1.2908E+00 -1.2887E+00 -1.2852E+00 -4.6887E-01 -4.6839E-01
 -2.4033E-01 -2.0371E-01 -1.8620E-01 -1.6318E-01 -1.3957E-01 -1.1348E-01
 -3.5508E-02  3.2548E-02
 Total charge density [el/Bohr^3]
,     Maximum=    8.7451E-01  at reduced coord.    0.8333    0.9167    0.0000
,     Minimum=    3.8125E-07  at reduced coord.    0.2917    0.0417    0.4907
,  Integrated=    2.6000E+01
 ETOT  6  -88.402464993144    -2.187E-04 3.880E-03 2.358E-01
 scprqt: <Vxc>= -1.8391942E-01 hartree

 Pulay update with  5 previous iterations:
 mixing of old trial potential : alpha(m:m-4)=  0.781      0.338     -0.155      0.282E-01  0.809E-02

 ITER STEP NUMBER     7
 vtorho : nnsclo_now=  1, note that nnsclo,dbl_nnsclo,istep=  0 0  7
 Non-SCF iterations; kpt #     1  , k= (  0.00000  0.00000  0.00000  ), band residuals:
 res:  3.76E-07  6.04E-07  7.28E-08  6.36E-08  7.56E-07  1.21E-06  5.54E-07  2.97E-07
 res:  8.73E-07  1.11E-06  7.63E-07  7.24E-07  3.28E-07  7.45E-04
 ene: -2.16E+00 -1.29E+00 -1.28E+00 -1.28E+00 -5.55E-01 -5.06E-01 -2.44E-01 -1.32E-01
 ene: -1.32E-01 -1.02E-01 -8.96E-02 -8.96E-02 -3.84E-02  7.86E-02
 vtowfk : number of one-way 3D ffts skipped in vtowfk until now =43
     eigenvalues (hartree) for   14  bands
              after    2 non-SCF iterations with    4 CG line minimizations
 -2.1639E+00 -1.2884E+00 -1.2767E+00 -1.2767E+00 -5.5534E-01 -5.0615E-01
 -2.4445E-01 -1.3232E-01 -1.3232E-01 -1.0184E-01 -8.9612E-02 -8.9611E-02
 -3.8413E-02  7.8642E-02
 Non-SCF iterations; kpt #     2  , k= (  0.16667  0.00000  0.00000  ), band residuals:
 res:  3.58E-07  5.62E-07  2.47E-07  1.00E-07  8.30E-07  1.08E-06  6.46E-07  7.48E-07
 res:  6.44E-07  5.02E-07  3.09E-07  8.94E-07  4.09E-07  1.65E-05
 ene: -2.16E+00 -1.29E+00 -1.28E+00 -1.28E+00 -5.40E-01 -5.00E-01 -2.29E-01 -1.59E-01
 ene: -1.46E-01 -1.16E-01 -1.11E-01 -7.21E-02 -4.73E-02  5.24E-02
 vtowfk : number of one-way 3D ffts skipped in vtowfk until now =44
     eigenvalues (hartree) for   14  bands
              after    2 non-SCF iterations with    4 CG line minimizations
 -2.1616E+00 -1.2872E+00 -1.2810E+00 -1.2776E+00 -5.3957E-01 -4.9995E-01
 -2.2926E-01 -1.5893E-01 -1.4584E-01 -1.1572E-01 -1.1087E-01 -7.2053E-02
 -4.7340E-02  5.2410E-02
 Non-SCF iterations; kpt #     3  , k= (  0.33333  0.00000  0.00000  ), band residuals:
 res:  2.70E-07  6.07E-07  4.02E-07  1.94E-07  9.19E-07  7.08E-07  5.90E-07  4.56E-07
 res:  6.73E-07  1.54E-07  9.05E-07  1.59E-06  4.19E-07  6.01E-06
 ene: -2.16E+00 -1.29E+00 -1.29E+00 -1.28E+00 -5.04E-01 -4.86E-01 -2.33E-01 -1.94E-01
 ene: -1.76E-01 -1.42E-01 -9.38E-02 -8.16E-02 -7.22E-02  5.26E-02
 vtowfk : number of one-way 3D ffts skipped in vtowfk until now =45
     eigenvalues (hartree) for   14  bands
              after    2 non-SCF iterations with    4 CG line minimizations
 -2.1644E+00 -1.2901E+00 -1.2855E+00 -1.2799E+00 -5.0387E-01 -4.8600E-01
 -2.3274E-01 -1.9364E-01 -1.7644E-01 -1.4169E-01 -9.3834E-02 -8.1605E-02
 -7.2219E-02  5.2563E-02
 Non-SCF iterations; kpt #     4  , k= (  0.50000  0.00000  0.00000  ), band residuals:
 res:  1.76E-07  8.42E-07  3.29E-07  2.41E-07  9.68E-07  5.61E-07  4.67E-07  4.38E-07
 res:  5.80E-07  1.28E-07  9.39E-07  9.46E-07  8.22E-07  3.56E-03
 ene: -2.16E+00 -1.29E+00 -1.28E+00 -1.28E+00 -4.81E-01 -4.78E-01 -2.51E-01 -2.16E-01
 ene: -1.88E-01 -1.54E-01 -1.04E-01 -6.55E-02 -5.69E-02  6.27E-02
 vtowfk : number of one-way 3D ffts skipped in vtowfk until now =46
     eigenvalues (hartree) for   14  bands
              after    2 non-SCF iterations with    4 CG line minimizations
 -2.1630E+00 -1.2942E+00 -1.2843E+00 -1.2810E+00 -4.8149E-01 -4.7766E-01
 -2.5114E-01 -2.1624E-01 -1.8773E-01 -1.5385E-01 -1.0425E-01 -6.5513E-02
 -5.6944E-02  6.2699E-02
 Non-SCF iterations; kpt #     5  , k= (  0.16667  0.16667  0.00000  ), band residuals:
 res:  3.01E-07  4.90E-07  4.80E-07  1.88E-07  9.07E-07  8.28E-07  7.14E-07  3.94E-07
 res:  6.15E-07  3.23E-07  8.92E-07  7.36E-07  4.86E-07  7.91E-06
 ene: -2.16E+00 -1.29E+00 -1.29E+00 -1.28E+00 -5.14E-01 -4.90E-01 -2.22E-01 -1.74E-01
 ene: -1.72E-01 -1.56E-01 -1.06E-01 -6.96E-02 -6.52E-02  3.71E-02
 vtowfk : number of one-way 3D ffts skipped in vtowfk until now =47
     eigenvalues (hartree) for   14  bands
              after    2 non-SCF iterations with    4 CG line minimizations
 -2.1629E+00 -1.2871E+00 -1.2859E+00 -1.2799E+00 -5.1367E-01 -4.8955E-01
 -2.2153E-01 -1.7406E-01 -1.7173E-01 -1.5569E-01 -1.0621E-01 -6.9649E-02
 -6.5166E-02  3.7149E-02
 Non-SCF iterations; kpt #     6  , k= (  0.33333  0.16667  0.00000  ), band residuals:
 res:  2.07E-07  7.15E-07  3.68E-07  2.76E-07  9.90E-07  5.10E-07  5.57E-07  2.14E-07
 res:  6.82E-07  4.59E-07  7.34E-07  8.32E-07  6.16E-07  7.45E-05
 ene: -2.16E+00 -1.29E+00 -1.28E+00 -1.28E+00 -4.82E-01 -4.77E-01 -2.34E-01 -2.21E-01
 ene: -1.76E-01 -1.56E-01 -1.20E-01 -9.67E-02 -5.32E-02  5.06E-02
 vtowfk : number of one-way 3D ffts skipped in vtowfk until now =48
     eigenvalues (hartree) for   14  bands
              after    2 non-SCF iterations with    4 CG line minimizations
 -2.1634E+00 -1.2921E+00 -1.2845E+00 -1.2830E+00 -4.8231E-01 -4.7689E-01
 -2.3425E-01 -2.2111E-01 -1.7617E-01 -1.5563E-01 -1.2010E-01 -9.6730E-02
 -5.3187E-02  5.0560E-02
 Non-SCF iterations; kpt #     7  , k= (  0.33333  0.33333  0.00000  ), band residuals:
 res:  2.15E-07  6.77E-07  3.22E-07  3.58E-07  4.11E-07  8.53E-07  8.59E-08  5.52E-07
 res:  6.08E-07  8.15E-07  3.79E-07  5.71E-07  3.17E-07  1.99E-05
 ene: -2.16E+00 -1.29E+00 -1.29E+00 -1.28E+00 -4.71E-01 -4.71E-01 -2.42E-01 -2.06E-01
 ene: -1.88E-01 -1.65E-01 -1.41E-01 -1.15E-01 -3.61E-02  3.20E-02
 vtowfk : number of one-way 3D ffts skipped in vtowfk until now =49
     eigenvalues (hartree) for   14  bands
              after    2 non-SCF iterations with    4 CG line minimizations
 -2.1630E+00 -1.2898E+00 -1.2877E+00 -1.2842E+00 -4.7114E-01 -4.7070E-01
 -2.4205E-01 -2.0554E-01 -1.8799E-01 -1.6453E-01 -1.4148E-01 -1.1451E-01
 -3.6064E-02  3.1957E-02
 Total charge density [el/Bohr^3]
,     Maximum=    8.7267E-01  at reduced coord.    0.8333    0.9167    0.0000
,     Minimum=    3.8156E-07  at reduced coord.    0.2917    0.0417    0.4907
,  Integrated=    2.6000E+01
 ETOT  7  -88.402565989862    -1.010E-04 3.562E-03 1.102E-01
 scprqt: <Vxc>= -1.8381899E-01 hartree

 Pulay update with  6 previous iterations:
 mixing of old trial potential : alpha(m:m-4)=   1.47     -0.204     -0.319      0.429E-01  0.126E-01

 ITER STEP NUMBER     8
 vtorho : nnsclo_now=  1, note that nnsclo,dbl_nnsclo,istep=  0 0  8
 Non-SCF iterations; kpt #     1  , k= (  0.00000  0.00000  0.00000  ), band residuals:
 res:  3.51E-08  3.65E-08  4.48E-09  5.99E-09  3.66E-08  3.29E-08  1.02E-07  3.28E-08
 res:  1.24E-07  1.42E-08  9.95E-08  2.10E-07  1.10E-07  1.84E-04
 ene: -2.16E+00 -1.29E+00 -1.28E+00 -1.28E+00 -5.54E-01 -5.05E-01 -2.43E-01 -1.32E-01
 ene: -1.32E-01 -1.01E-01 -8.87E-02 -8.87E-02 -3.76E-02  7.81E-02
 vtowfk : number of one-way 3D ffts skipped in vtowfk until now =50
     eigenvalues (hartree) for   14  bands
              after    2 non-SCF iterations with    4 CG line minimizations
 -2.1640E+00 -1.2882E+00 -1.2767E+00 -1.2767E+00 -5.5406E-01 -5.0481E-01
 -2.4340E-01 -1.3161E-01 -1.3161E-01 -1.0057E-01 -8.8743E-02 -8.8743E-02
 -3.7605E-02  7.8106E-02
 Non-SCF iterations; kpt #     2  , k= (  0.16667  0.00000  0.00000  ), band residuals:
 res:  3.54E-08  3.47E-08  1.93E-08  7.77E-09  4.53E-08  3.46E-08  1.19E-07  2.07E-07
 res:  5.93E-08  7.82E-08  4.33E-08  2.60E-08  1.33E-07  1.59E-05
 ene: -2.16E+00 -1.29E+00 -1.28E+00 -1.28E+00 -5.38E-01 -4.99E-01 -2.28E-01 -1.58E-01
 ene: -1.45E-01 -1.15E-01 -1.10E-01 -7.08E-02 -4.65E-02  5.32E-02
 vtowfk : number of one-way 3D ffts skipped in vtowfk until now =51
     eigenvalues (hartree) for   14  bands
              after    2 non-SCF iterations with    4 CG line minimizations
 -2.1616E+00 -1.2870E+00 -1.2810E+00 -1.2776E+00 -5.3829E-01 -4.9862E-01
 -2.2822E-01 -1.5807E-01 -1.4478E-01 -1.1494E-01 -1.0996E-01 -7.0788E-02
 -4.6531E-02  5.3247E-02
 Non-SCF iterations; kpt #     3  , k= (  0.33333  0.00000  0.00000  ), band residuals:
 res:  3.46E-08  4.58E-08  2.66E-08  1.58E-08  6.00E-08  4.26E-08  1.65E-07  5.30E-08
 res:  9.99E-08  2.19E-08  4.30E-08  4.81E-07  1.21E-07  1.29E-06
 ene: -2.16E+00 -1.29E+00 -1.29E+00 -1.28E+00 -5.03E-01 -4.85E-01 -2.32E-01 -1.92E-01
 ene: -1.75E-01 -1.41E-01 -9.26E-02 -8.06E-02 -7.15E-02  5.33E-02
 vtowfk : number of one-way 3D ffts skipped in vtowfk until now =52
     eigenvalues (hartree) for   14  bands
              after    2 non-SCF iterations with    4 CG line minimizations
 -2.1644E+00 -1.2900E+00 -1.2853E+00 -1.2799E+00 -5.0259E-01 -4.8467E-01
 -2.3173E-01 -1.9250E-01 -1.7532E-01 -1.4074E-01 -9.2582E-02 -8.0592E-02
 -7.1456E-02  5.3254E-02
 Non-SCF iterations; kpt #     4  , k= (  0.50000  0.00000  0.00000  ), band residuals:
 res:  2.79E-08  6.29E-08  2.27E-08  2.03E-08  7.09E-08  4.27E-08  8.40E-08  4.96E-08
 res:  1.30E-07  1.80E-08  6.76E-08  1.00E-07  1.59E-07  6.46E-04
 ene: -2.16E+00 -1.29E+00 -1.28E+00 -1.28E+00 -4.80E-01 -4.76E-01 -2.50E-01 -2.15E-01
 ene: -1.87E-01 -1.53E-01 -1.03E-01 -6.43E-02 -5.61E-02  6.00E-02
 vtowfk : number of one-way 3D ffts skipped in vtowfk until now =53
     eigenvalues (hartree) for   14  bands
              after    2 non-SCF iterations with    4 CG line minimizations
 -2.1630E+00 -1.2941E+00 -1.2841E+00 -1.2810E+00 -4.8021E-01 -4.7635E-01
 -2.4999E-01 -2.1503E-01 -1.8675E-01 -1.5290E-01 -1.0306E-01 -6.4280E-02
 -5.6055E-02  5.9996E-02
 Non-SCF iterations; kpt #     5  , k= (  0.16667  0.16667  0.00000  ), band residuals:
 res:  3.32E-08  3.69E-08  3.11E-08  1.57E-08  5.68E-08  3.99E-08  1.64E-07  5.85E-08
 res:  1.25E-07  3.59E-08  1.92E-07  3.06E-08  1.21E-07  5.46E-06
 ene: -2.16E+00 -1.29E+00 -1.29E+00 -1.28E+00 -5.12E-01 -4.88E-01 -2.21E-01 -1.73E-01
 ene: -1.71E-01 -1.55E-01 -1.05E-01 -6.84E-02 -6.44E-02  3.79E-02
 vtowfk : number of one-way 3D ffts skipped in vtowfk until now =54
     eigenvalues (hartree) for   14  bands
              after    2 non-SCF iterations with    4 CG line minimizations
 -2.1629E+00 -1.2871E+00 -1.2857E+00 -1.2799E+00 -5.1238E-01 -4.8822E-01
 -2.2053E-01 -1.7296E-01 -1.7066E-01 -1.5468E-01 -1.0520E-01 -6.8360E-02
 -6.4448E-02  3.7919E-02
 Non-SCF iterations; kpt #     6  , k= (  0.33333  0.16667  0.00000  ), band residuals:
 res:  3.09E-08  5.39E-08  2.55E-08  2.29E-08  7.14E-08  4.50E-08  1.21E-07  4.11E-08
 res:  1.24E-07  5.62E-08  8.78E-08  7.16E-08  1.99E-07  4.33E-05
 ene: -2.16E+00 -1.29E+00 -1.28E+00 -1.28E+00 -4.81E-01 -4.76E-01 -2.33E-01 -2.20E-01
 ene: -1.75E-01 -1.55E-01 -1.19E-01 -9.55E-02 -5.25E-02  5.10E-02
 vtowfk : number of one-way 3D ffts skipped in vtowfk until now =55
     eigenvalues (hartree) for   14  bands
              after    2 non-SCF iterations with    4 CG line minimizations
 -2.1634E+00 -1.2921E+00 -1.2842E+00 -1.2830E+00 -4.8102E-01 -4.7558E-01
 -2.3314E-01 -2.2001E-01 -1.7511E-01 -1.5452E-01 -1.1893E-01 -9.5517E-02
 -5.2470E-02  5.1043E-02
 Non-SCF iterations; kpt #     7  , k= (  0.33333  0.33333  0.00000  ), band residuals:
 res:  2.88E-08  4.78E-08  2.90E-08  2.56E-08  4.47E-08  8.29E-08  2.13E-08  6.78E-08
 res:  1.18E-07  1.18E-07  2.56E-08  6.63E-08  1.05E-07  1.20E-05
 ene: -2.16E+00 -1.29E+00 -1.29E+00 -1.28E+00 -4.70E-01 -4.69E-01 -2.41E-01 -2.04E-01
 ene: -1.87E-01 -1.63E-01 -1.40E-01 -1.13E-01 -3.55E-02  3.25E-02
 vtowfk : number of one-way 3D ffts skipped in vtowfk until now =56
     eigenvalues (hartree) for   14  bands
              after    2 non-SCF iterations with    4 CG line minimizations
 -2.1630E+00 -1.2898E+00 -1.2877E+00 -1.2840E+00 -4.6982E-01 -4.6941E-01
 -2.4100E-01 -2.0436E-01 -1.8684E-01 -1.6346E-01 -1.4018E-01 -1.1339E-01
 -3.5494E-02  3.2486E-02
 Total charge density [el/Bohr^3]
,     Maximum=    8.7347E-01  at reduced coord.    0.8333    0.9167    0.0000
,     Minimum=    3.8137E-07  at reduced coord.    0.2917    0.0417    0.4907
,  Integrated=    2.6000E+01
 ETOT  8  -88.402574352283    -8.362E-06 6.463E-04 6.259E-02
 scprqt: <Vxc>= -1.8384464E-01 hartree

 Pulay update with  7 previous iterations:
 mixing of old trial potential : alpha(m:m-4)=   1.44     -0.484     -0.132E-01  0.670E-01 -0.349E-02

 ITER STEP NUMBER     9
 vtorho : nnsclo_now=  1, note that nnsclo,dbl_nnsclo,istep=  0 0  9
 Non-SCF iterations; kpt #     1  , k= (  0.00000  0.00000  0.00000  ), band residuals:
 res:  1.40E-08  8.76E-09  1.33E-09  8.60E-10  1.41E-08  9.97E-09  3.79E-08  5.67E-09
 res:  4.10E-08  4.95E-09  2.40E-08  4.97E-08  4.14E-08  7.33E-04
 ene: -2.16E+00 -1.29E+00 -1.28E+00 -1.28E+00 -5.54E-01 -5.05E-01 -2.43E-01 -1.31E-01
 ene: -1.31E-01 -1.00E-01 -8.83E-02 -8.83E-02 -3.72E-02  7.71E-02
 vtowfk : number of one-way 3D ffts skipped in vtowfk until now =57
     eigenvalues (hartree) for   14  bands
              after    2 non-SCF iterations with    4 CG line minimizations
 -2.1630E+00 -1.2875E+00 -1.2757E+00 -1.2757E+00 -5.5384E-01 -5.0463E-01
 -2.4305E-01 -1.3106E-01 -1.3106E-01 -1.0037E-01 -8.8302E-02 -8.8302E-02
 -3.7162E-02  7.7124E-02
 Non-SCF iterations; kpt #     2  , k= (  0.16667  0.00000  0.00000  ), band residuals:
 res:  1.44E-08  8.44E-09  5.32E-09  1.78E-09  1.64E-08  1.07E-08  4.42E-08  6.97E-08
 res:  1.37E-08  1.35E-08  8.24E-09  1.30E-08  4.66E-08  6.20E-06
 ene: -2.16E+00 -1.29E+00 -1.28E+00 -1.28E+00 -5.38E-01 -4.98E-01 -2.28E-01 -1.58E-01
 ene: -1.44E-01 -1.14E-01 -1.10E-01 -7.06E-02 -4.61E-02  5.36E-02
 vtowfk : number of one-way 3D ffts skipped in vtowfk until now =58
     eigenvalues (hartree) for   14  bands
              after    2 non-SCF iterations with    4 CG line minimizations
 -2.1607E+00 -1.2863E+00 -1.2800E+00 -1.2767E+00 -5.3807E-01 -4.9843E-01
 -2.2786E-01 -1.5760E-01 -1.4445E-01 -1.1443E-01 -1.0954E-01 -7.0579E-02
 -4.6076E-02  5.3620E-02
 Non-SCF iterations; kpt #     3  , k= (  0.33333  0.00000  0.00000  ), band residuals:
 res:  1.51E-08  1.26E-08  6.65E-09  4.13E-09  2.12E-08  1.34E-08  5.88E-08  1.29E-08
 res:  3.36E-08  2.86E-09  1.53E-08  9.40E-08  4.31E-08  6.58E-07
 ene: -2.16E+00 -1.29E+00 -1.28E+00 -1.28E+00 -5.02E-01 -4.84E-01 -2.31E-01 -1.92E-01
 ene: -1.75E-01 -1.40E-01 -9.24E-02 -8.02E-02 -7.10E-02  5.38E-02
 vtowfk : number of one-way 3D ffts skipped in vtowfk until now =59
     eigenvalues (hartree) for   14  bands
              after    2 non-SCF iterations with    4 CG line minimizations
 -2.1634E+00 -1.2891E+00 -1.2845E+00 -1.2790E+00 -5.0237E-01 -4.8448E-01
 -2.3136E-01 -1.9222E-01 -1.7502E-01 -1.4034E-01 -9.2363E-02 -8.0219E-02
 -7.0956E-02  5.3776E-02
 Non-SCF iterations; kpt #     4  , k= (  0.50000  0.00000  0.00000  ), band residuals:
 res:  1.19E-08  1.73E-08  5.77E-09  5.63E-09  2.54E-08  1.47E-08  3.00E-08  1.38E-08
 res:  4.53E-08  2.45E-09  1.81E-08  3.34E-08  4.30E-08  1.22E-03
 ene: -2.16E+00 -1.29E+00 -1.28E+00 -1.28E+00 -4.80E-01 -4.76E-01 -2.50E-01 -2.15E-01
 ene: -1.86E-01 -1.53E-01 -1.03E-01 -6.40E-02 -5.56E-02  5.85E-02
 vtowfk : number of one-way 3D ffts skipped in vtowfk until now =60
     eigenvalues (hartree) for   14  bands
              after    2 non-SCF iterations with    4 CG line minimizations
 -2.1620E+00 -1.2932E+00 -1.2833E+00 -1.2801E+00 -4.7998E-01 -4.7615E-01
 -2.4971E-01 -2.1479E-01 -1.8636E-01 -1.5251E-01 -1.0280E-01 -6.4037E-02
 -5.5626E-02  5.8486E-02
 Non-SCF iterations; kpt #     5  , k= (  0.16667  0.16667  0.00000  ), band residuals:
 res:  1.31E-08  1.01E-08  7.73E-09  4.27E-09  1.99E-08  1.25E-08  5.91E-08  1.09E-08
 res:  4.28E-08  8.49E-09  4.87E-08  1.10E-08  5.07E-08  1.62E-06
 ene: -2.16E+00 -1.29E+00 -1.28E+00 -1.28E+00 -5.12E-01 -4.88E-01 -2.20E-01 -1.73E-01
 ene: -1.70E-01 -1.54E-01 -1.05E-01 -6.82E-02 -6.39E-02  3.84E-02
 vtowfk : number of one-way 3D ffts skipped in vtowfk until now =61
     eigenvalues (hartree) for   14  bands
              after    2 non-SCF iterations with    4 CG line minimizations
 -2.1620E+00 -1.2862E+00 -1.2849E+00 -1.2789E+00 -5.1216E-01 -4.8803E-01
 -2.2015E-01 -1.7265E-01 -1.7032E-01 -1.5432E-01 -1.0483E-01 -6.8161E-02
 -6.3919E-02  3.8384E-02
 Non-SCF iterations; kpt #     6  , k= (  0.33333  0.16667  0.00000  ), band residuals:
 res:  1.38E-08  1.47E-08  6.51E-09  6.43E-09  2.53E-08  1.45E-08  4.31E-08  1.08E-08
 res:  4.43E-08  1.37E-08  3.06E-08  1.92E-08  4.59E-08  2.29E-05
 ene: -2.16E+00 -1.29E+00 -1.28E+00 -1.28E+00 -4.81E-01 -4.75E-01 -2.33E-01 -2.20E-01
 ene: -1.75E-01 -1.54E-01 -1.19E-01 -9.53E-02 -5.19E-02  5.15E-02
 vtowfk : number of one-way 3D ffts skipped in vtowfk until now =62
     eigenvalues (hartree) for   14  bands
              after    2 non-SCF iterations with    4 CG line minimizations
 -2.1625E+00 -1.2912E+00 -1.2835E+00 -1.2821E+00 -4.8080E-01 -4.7538E-01
 -2.3284E-01 -2.1970E-01 -1.7477E-01 -1.5422E-01 -1.1866E-01 -9.5274E-02
 -5.1931E-02  5.1533E-02
 Non-SCF iterations; kpt #     7  , k= (  0.33333  0.33333  0.00000  ), band residuals:
 res:  1.38E-08  1.21E-08  8.79E-09  6.60E-09  1.47E-08  2.84E-08  4.35E-09  1.97E-08
 res:  4.04E-08  3.11E-08  6.55E-09  1.53E-08  3.56E-08  1.58E-06
 ene: -2.16E+00 -1.29E+00 -1.29E+00 -1.28E+00 -4.70E-01 -4.69E-01 -2.41E-01 -2.04E-01
 ene: -1.87E-01 -1.63E-01 -1.40E-01 -1.13E-01 -3.49E-02  3.31E-02
 vtowfk : number of one-way 3D ffts skipped in vtowfk until now =63
     eigenvalues (hartree) for   14  bands
              after    2 non-SCF iterations with    4 CG line minimizations
 -2.1621E+00 -1.2889E+00 -1.2868E+00 -1.2832E+00 -4.6962E-01 -4.6919E-01
 -2.4066E-01 -2.0410E-01 -1.8656E-01 -1.6311E-01 -1.3999E-01 -1.1309E-01
 -3.4865E-02  3.3081E-02
 Total charge density [el/Bohr^3]
,     Maximum=    8.7301E-01  at reduced coord.    0.8333    0.9167    0.0000
,     Minimum=    3.8132E-07  at reduced coord.    0.2917    0.0417    0.4907
,  Integrated=    2.6000E+01
 ETOT  9  -88.402579549778    -5.197E-06 1.220E-03 9.124E-03
 scprqt: <Vxc>= -1.8386279E-01 hartree

 Pulay update with  7 previous iterations:
 mixing of old trial potential : alpha(m:m-4)=   1.20     -0.559E-01 -0.223      0.458E-01  0.361E-01

 ITER STEP NUMBER    10
 vtorho : nnsclo_now=  1, note that nnsclo,dbl_nnsclo,istep=  0 0 10
 Non-SCF iterations; kpt #     1  , k= (  0.00000  0.00000  0.00000  ), band residuals:
 res:  2.59E-09  6.49E-10  1.33E-10  9.27E-11  7.23E-10  5.17E-10  2.32E-09  9.76E-10
 res:  2.35E-09  1.80E-10  2.58E-09  5.40E-09  4.50E-09  1.22E-04
 ene: -2.16E+00 -1.29E+00 -1.28E+00 -1.28E+00 -5.54E-01 -5.05E-01 -2.43E-01 -1.31E-01
 ene: -1.31E-01 -1.00E-01 -8.84E-02 -8.84E-02 -3.72E-02  7.60E-02
 vtowfk : number of one-way 3D ffts skipped in vtowfk until now =64
     eigenvalues (hartree) for   14  bands
              after    2 non-SCF iterations with    4 CG line minimizations
 -2.1633E+00 -1.2876E+00 -1.2760E+00 -1.2760E+00 -5.5384E-01 -5.0462E-01
 -2.4309E-01 -1.3116E-01 -1.3116E-01 -1.0036E-01 -8.8365E-02 -8.8365E-02
 -3.7220E-02  7.5981E-02
 Non-SCF iterations; kpt #     2  , k= (  0.16667  0.00000  0.00000  ), band residuals:
 res:  2.67E-09  6.31E-10  6.42E-10  2.00E-10  9.30E-10  5.15E-10  3.15E-09  5.88E-09
 res:  1.43E-09  2.11E-09  1.13E-09  7.07E-10  4.92E-09  6.87E-06
 ene: -2.16E+00 -1.29E+00 -1.28E+00 -1.28E+00 -5.38E-01 -4.98E-01 -2.28E-01 -1.58E-01
 ene: -1.44E-01 -1.15E-01 -1.10E-01 -7.06E-02 -4.61E-02  5.35E-02
 vtowfk : number of one-way 3D ffts skipped in vtowfk until now =65
     eigenvalues (hartree) for   14  bands
              after    2 non-SCF iterations with    4 CG line minimizations
 -2.1609E+00 -1.2864E+00 -1.2802E+00 -1.2769E+00 -5.3807E-01 -4.9843E-01
 -2.2790E-01 -1.5768E-01 -1.4448E-01 -1.1452E-01 -1.0960E-01 -7.0578E-02
 -4.6143E-02  5.3530E-02
 Non-SCF iterations; kpt #     3  , k= (  0.33333  0.00000  0.00000  ), band residuals:
 res:  2.93E-09  1.50E-09  5.05E-10  4.77E-10  1.35E-09  5.54E-10  5.04E-09  9.18E-10
 res:  2.26E-09  4.09E-10  1.19E-09  1.09E-08  4.37E-09  3.57E-07
 ene: -2.16E+00 -1.29E+00 -1.28E+00 -1.28E+00 -5.02E-01 -4.84E-01 -2.31E-01 -1.92E-01
 ene: -1.75E-01 -1.40E-01 -9.24E-02 -8.03E-02 -7.10E-02  5.37E-02
 vtowfk : number of one-way 3D ffts skipped in vtowfk until now =66
     eigenvalues (hartree) for   14  bands
              after    2 non-SCF iterations with    4 CG line minimizations
 -2.1637E+00 -1.2893E+00 -1.2847E+00 -1.2792E+00 -5.0237E-01 -4.8448E-01
 -2.3141E-01 -1.9224E-01 -1.7505E-01 -1.4040E-01 -9.2369E-02 -8.0270E-02
 -7.1041E-02  5.3687E-02
 Non-SCF iterations; kpt #     4  , k= (  0.50000  0.00000  0.00000  ), band residuals:
 res:  2.06E-09  2.04E-09  4.44E-10  6.68E-10  1.62E-09  5.08E-10  2.39E-09  1.04E-09
 res:  3.40E-09  3.05E-10  1.26E-09  3.31E-09  4.38E-09  3.43E-04
 ene: -2.16E+00 -1.29E+00 -1.28E+00 -1.28E+00 -4.80E-01 -4.76E-01 -2.50E-01 -2.15E-01
 ene: -1.86E-01 -1.53E-01 -1.03E-01 -6.41E-02 -5.57E-02  5.66E-02
 vtowfk : number of one-way 3D ffts skipped in vtowfk until now =67
     eigenvalues (hartree) for   14  bands
              after    2 non-SCF iterations with    4 CG line minimizations
 -2.1623E+00 -1.2934E+00 -1.2835E+00 -1.2803E+00 -4.7999E-01 -4.7615E-01
 -2.4973E-01 -2.1480E-01 -1.8641E-01 -1.5256E-01 -1.0282E-01 -6.4051E-02
 -5.5691E-02  5.6620E-02
 Non-SCF iterations; kpt #     5  , k= (  0.16667  0.16667  0.00000  ), band residuals:
 res:  2.36E-09  1.21E-09  5.87E-10  5.01E-10  1.25E-09  5.47E-10  5.07E-09  9.37E-10
 res:  3.05E-09  5.70E-10  4.93E-09  5.83E-10  3.75E-09  1.45E-06
 ene: -2.16E+00 -1.29E+00 -1.29E+00 -1.28E+00 -5.12E-01 -4.88E-01 -2.20E-01 -1.73E-01
 ene: -1.70E-01 -1.54E-01 -1.05E-01 -6.82E-02 -6.40E-02  3.83E-02
 vtowfk : number of one-way 3D ffts skipped in vtowfk until now =68
     eigenvalues (hartree) for   14  bands
              after    2 non-SCF iterations with    4 CG line minimizations
 -2.1622E+00 -1.2864E+00 -1.2851E+00 -1.2792E+00 -5.1217E-01 -4.8803E-01
 -2.2020E-01 -1.7268E-01 -1.7036E-01 -1.5436E-01 -1.0488E-01 -6.8162E-02
 -6.4015E-02  3.8297E-02
 Non-SCF iterations; kpt #     6  , k= (  0.33333  0.16667  0.00000  ), band residuals:
 res:  2.70E-09  1.74E-09  5.03E-10  7.55E-10  1.66E-09  5.01E-10  3.78E-09  8.14E-10
 res:  3.17E-09  9.57E-10  2.46E-09  1.33E-09  4.42E-09  1.42E-05
 ene: -2.16E+00 -1.29E+00 -1.28E+00 -1.28E+00 -4.81E-01 -4.75E-01 -2.33E-01 -2.20E-01
 ene: -1.75E-01 -1.54E-01 -1.19E-01 -9.53E-02 -5.20E-02  5.14E-02
 vtowfk : number of one-way 3D ffts skipped in vtowfk until now =69
     eigenvalues (hartree) for   14  bands
              after    2 non-SCF iterations with    4 CG line minimizations
 -2.1627E+00 -1.2914E+00 -1.2836E+00 -1.2823E+00 -4.8080E-01 -4.7538E-01
 -2.3287E-01 -2.1973E-01 -1.7481E-01 -1.5425E-01 -1.1868E-01 -9.5288E-02
 -5.2031E-02  5.1381E-02
 Non-SCF iterations; kpt #     7  , k= (  0.33333  0.33333  0.00000  ), band residuals:
 res:  2.85E-09  1.40E-09  1.03E-09  5.15E-10  4.48E-10  1.90E-09  3.76E-10  1.97E-09
 res:  3.75E-09  2.85E-09  4.86E-10  7.80E-10  3.33E-09  9.68E-07
 ene: -2.16E+00 -1.29E+00 -1.29E+00 -1.28E+00 -4.70E-01 -4.69E-01 -2.41E-01 -2.04E-01
 ene: -1.87E-01 -1.63E-01 -1.40E-01 -1.13E-01 -3.50E-02  3.30E-02
 vtowfk : number of one-way 3D ffts skipped in vtowfk until now =70
     eigenvalues (hartree) for   14  bands
              after    2 non-SCF iterations with    4 CG line minimizations
 -2.1623E+00 -1.2891E+00 -1.2870E+00 -1.2833E+00 -4.6962E-01 -4.6919E-01
 -2.4070E-01 -2.0412E-01 -1.8658E-01 -1.6316E-01 -1.3999E-01 -1.1313E-01
[...]
 res:  1.91E-11  1.73E-12  5.20E-12  1.57E-11  5.66E-11  3.27E-06
 ene: -2.16E+00 -1.29E+00 -1.28E+00 -1.28E+00 -5.38E-01 -4.98E-01 -2.28E-01 -1.58E-01
 ene: -1.44E-01 -1.14E-01 -1.10E-01 -7.05E-02 -4.61E-02  5.35E-02
 vtowfk : number of one-way 3D ffts skipped in vtowfk until now =79
     eigenvalues (hartree) for   14  bands
              after    2 non-SCF iterations with    4 CG line minimizations
 -2.1609E+00 -1.2864E+00 -1.2802E+00 -1.2769E+00 -5.3803E-01 -4.9839E-01
 -2.2786E-01 -1.5764E-01 -1.4444E-01 -1.1448E-01 -1.0956E-01 -7.0535E-02
 -4.6111E-02  5.3534E-02
 Non-SCF iterations; kpt #     3  , k= (  0.33333  0.00000  0.00000  ), band residuals:
 res:  3.84E-11  1.80E-13  3.22E-12  1.89E-13  1.19E-11  1.67E-11  1.38E-11  8.89E-12
 res:  2.83E-11  2.81E-12  1.54E-11  9.79E-12  3.97E-11  2.37E-07
 ene: -2.16E+00 -1.29E+00 -1.28E+00 -1.28E+00 -5.02E-01 -4.84E-01 -2.31E-01 -1.92E-01
 ene: -1.75E-01 -1.40E-01 -9.23E-02 -8.02E-02 -7.10E-02  5.37E-02
 vtowfk : number of one-way 3D ffts skipped in vtowfk until now =80
     eigenvalues (hartree) for   14  bands
              after    2 non-SCF iterations with    4 CG line minimizations
 -2.1636E+00 -1.2893E+00 -1.2846E+00 -1.2792E+00 -5.0233E-01 -4.8443E-01
 -2.3137E-01 -1.9220E-01 -1.7501E-01 -1.4036E-01 -9.2326E-02 -8.0230E-02
 -7.1009E-02  5.3716E-02
 Non-SCF iterations; kpt #     4  , k= (  0.50000  0.00000  0.00000  ), band residuals:
 res:  1.95E-11  1.65E-13  2.53E-12  2.18E-13  1.15E-11  1.69E-11  4.65E-12  7.59E-12
 res:  2.55E-11  2.08E-12  1.97E-11  5.38E-12  4.00E-11  1.63E-04
 ene: -2.16E+00 -1.29E+00 -1.28E+00 -1.28E+00 -4.80E-01 -4.76E-01 -2.50E-01 -2.15E-01
 ene: -1.86E-01 -1.53E-01 -1.03E-01 -6.40E-02 -5.57E-02  5.45E-02
 vtowfk : number of one-way 3D ffts skipped in vtowfk until now =81
     eigenvalues (hartree) for   14  bands
              after    2 non-SCF iterations with    4 CG line minimizations
 -2.1622E+00 -1.2934E+00 -1.2834E+00 -1.2803E+00 -4.7995E-01 -4.7610E-01
 -2.4969E-01 -2.1476E-01 -1.8638E-01 -1.5252E-01 -1.0278E-01 -6.4007E-02
 -5.5657E-02  5.4549E-02
 Non-SCF iterations; kpt #     5  , k= (  0.16667  0.16667  0.00000  ), band residuals:
 res:  2.65E-11  1.68E-13  3.76E-12  1.91E-13  1.18E-11  1.68E-11  2.10E-11  9.41E-12
 res:  1.89E-11  1.28E-11  1.24E-11  1.36E-11  3.88E-11  3.92E-07
 ene: -2.16E+00 -1.29E+00 -1.29E+00 -1.28E+00 -5.12E-01 -4.88E-01 -2.20E-01 -1.73E-01
 ene: -1.70E-01 -1.54E-01 -1.05E-01 -6.81E-02 -6.40E-02  3.83E-02
 vtowfk : number of one-way 3D ffts skipped in vtowfk until now =82
     eigenvalues (hartree) for   14  bands
              after    2 non-SCF iterations with    4 CG line minimizations
 -2.1622E+00 -1.2864E+00 -1.2851E+00 -1.2792E+00 -5.1212E-01 -4.8799E-01
 -2.2016E-01 -1.7264E-01 -1.7032E-01 -1.5432E-01 -1.0484E-01 -6.8118E-02
 -6.3983E-02  3.8326E-02
 Non-SCF iterations; kpt #     6  , k= (  0.33333  0.16667  0.00000  ), band residuals:
 res:  3.52E-11  1.81E-13  2.70E-12  2.02E-13  1.16E-11  1.69E-11  9.20E-12  6.47E-12
 res:  2.41E-11  1.15E-11  1.51E-11  1.82E-11  2.05E-11  4.81E-06
 ene: -2.16E+00 -1.29E+00 -1.28E+00 -1.28E+00 -4.81E-01 -4.75E-01 -2.33E-01 -2.20E-01
 ene: -1.75E-01 -1.54E-01 -1.19E-01 -9.52E-02 -5.20E-02  5.14E-02
 vtowfk : number of one-way 3D ffts skipped in vtowfk until now =83
     eigenvalues (hartree) for   14  bands
              after    2 non-SCF iterations with    4 CG line minimizations
 -2.1626E+00 -1.2914E+00 -1.2836E+00 -1.2823E+00 -4.8076E-01 -4.7533E-01
 -2.3282E-01 -2.1969E-01 -1.7477E-01 -1.5421E-01 -1.1864E-01 -9.5247E-02
 -5.1998E-02  5.1364E-02
 Non-SCF iterations; kpt #     7  , k= (  0.33333  0.33333  0.00000  ), band residuals:
 res:  4.39E-11  1.60E-13  2.15E-13  2.48E-12  1.69E-11  1.07E-11  3.84E-12  1.48E-11
 res:  3.25E-12  1.25E-11  2.92E-12  2.26E-11  6.13E-12  8.73E-08
 ene: -2.16E+00 -1.29E+00 -1.29E+00 -1.28E+00 -4.70E-01 -4.69E-01 -2.41E-01 -2.04E-01
 ene: -1.87E-01 -1.63E-01 -1.40E-01 -1.13E-01 -3.50E-02  3.30E-02
 vtowfk : number of one-way 3D ffts skipped in vtowfk until now =84
     eigenvalues (hartree) for   14  bands
              after    2 non-SCF iterations with    4 CG line minimizations
 -2.1623E+00 -1.2891E+00 -1.2870E+00 -1.2833E+00 -4.6957E-01 -4.6915E-01
 -2.4066E-01 -2.0408E-01 -1.8654E-01 -1.6312E-01 -1.3994E-01 -1.1309E-01
 -3.4965E-02  3.2998E-02
 Total charge density [el/Bohr^3]
,     Maximum=    8.7317E-01  at reduced coord.    0.8333    0.9167    0.0000
,     Minimum=    3.8132E-07  at reduced coord.    0.2917    0.0417    0.4907
,  Integrated=    2.6000E+01
 ETOT 12  -88.402581038426    -3.403E-09 1.626E-04 2.464E-06
 scprqt: <Vxc>= -1.8385362E-01 hartree

 Pulay update with  7 previous iterations:
 mixing of old trial potential : alpha(m:m-4)=   1.24     -0.169     -0.131      0.660E-01  0.178E-02

 ITER STEP NUMBER    13
 vtorho : nnsclo_now=  1, note that nnsclo,dbl_nnsclo,istep=  0 0 13
 Non-SCF iterations; kpt #     1  , k= (  0.00000  0.00000  0.00000  ), band residuals:
 res:  6.70E-12  1.48E-13  6.94E-14  6.68E-14  9.13E-13  1.39E-12  1.94E-12  6.83E-13
 res:  6.37E-13  1.46E-12  7.45E-14  6.49E-14  7.27E-12  1.83E-04
 ene: -2.16E+00 -1.29E+00 -1.28E+00 -1.28E+00 -5.54E-01 -5.05E-01 -2.43E-01 -1.31E-01
 ene: -1.31E-01 -1.00E-01 -8.83E-02 -8.83E-02 -3.72E-02  7.44E-02
 vtowfk : number of one-way 3D ffts skipped in vtowfk until now =85
     eigenvalues (hartree) for   14  bands
              after    2 non-SCF iterations with    4 CG line minimizations
 -2.1632E+00 -1.2876E+00 -1.2759E+00 -1.2759E+00 -5.5380E-01 -5.0458E-01
 -2.4306E-01 -1.3113E-01 -1.3113E-01 -1.0032E-01 -8.8334E-02 -8.8334E-02
 -3.7192E-02  7.4389E-02
 Non-SCF iterations; kpt #     2  , k= (  0.16667  0.00000  0.00000  ), band residuals:
 res:  6.87E-12  1.29E-13  1.48E-13  8.26E-14  9.32E-13  1.27E-12  2.01E-12  2.09E-12
 res:  1.03E-12  1.36E-12  6.23E-14  1.60E-12  7.17E-12  1.31E-06
 ene: -2.16E+00 -1.29E+00 -1.28E+00 -1.28E+00 -5.38E-01 -4.98E-01 -2.28E-01 -1.58E-01
 ene: -1.44E-01 -1.14E-01 -1.10E-01 -7.05E-02 -4.61E-02  5.35E-02
 vtowfk : number of one-way 3D ffts skipped in vtowfk until now =86
     eigenvalues (hartree) for   14  bands
              after    2 non-SCF iterations with    4 CG line minimizations
 -2.1609E+00 -1.2864E+00 -1.2802E+00 -1.2769E+00 -5.3803E-01 -4.9839E-01
 -2.2787E-01 -1.5765E-01 -1.4444E-01 -1.1449E-01 -1.0957E-01 -7.0538E-02
 -4.6114E-02  5.3523E-02
 Non-SCF iterations; kpt #     3  , k= (  0.33333  0.00000  0.00000  ), band residuals:
 res:  7.52E-12  2.29E-13  9.09E-14  1.37E-13  8.67E-13  9.58E-13  2.13E-12  4.91E-13
 res:  1.88E-12  6.61E-14  1.14E-12  3.03E-13  5.88E-12  2.54E-07
 ene: -2.16E+00 -1.29E+00 -1.28E+00 -1.28E+00 -5.02E-01 -4.84E-01 -2.31E-01 -1.92E-01
 ene: -1.75E-01 -1.40E-01 -9.23E-02 -8.02E-02 -7.10E-02  5.37E-02
 vtowfk : number of one-way 3D ffts skipped in vtowfk until now =87
     eigenvalues (hartree) for   14  bands
              after    2 non-SCF iterations with    4 CG line minimizations
 -2.1636E+00 -1.2893E+00 -1.2846E+00 -1.2792E+00 -5.0233E-01 -4.8444E-01
 -2.3137E-01 -1.9220E-01 -1.7501E-01 -1.4036E-01 -9.2329E-02 -8.0233E-02
 -7.1012E-02  5.3713E-02
 Non-SCF iterations; kpt #     4  , k= (  0.50000  0.00000  0.00000  ), band residuals:
 res:  3.91E-12  2.64E-13  7.10E-14  1.82E-13  7.28E-13  8.15E-13  1.64E-12  3.47E-13
 res:  2.13E-12  6.37E-14  9.53E-13  8.50E-13  3.49E-12  2.85E-04
 ene: -2.16E+00 -1.29E+00 -1.28E+00 -1.28E+00 -4.80E-01 -4.76E-01 -2.50E-01 -2.15E-01
 ene: -1.86E-01 -1.53E-01 -1.03E-01 -6.40E-02 -5.57E-02  5.40E-02
 vtowfk : number of one-way 3D ffts skipped in vtowfk until now =88
     eigenvalues (hartree) for   14  bands
              after    2 non-SCF iterations with    4 CG line minimizations
 -2.1622E+00 -1.2934E+00 -1.2835E+00 -1.2803E+00 -4.7995E-01 -4.7611E-01
 -2.4969E-01 -2.1476E-01 -1.8638E-01 -1.5252E-01 -1.0278E-01 -6.4010E-02
 -5.5659E-02  5.3966E-02
 Non-SCF iterations; kpt #     5  , k= (  0.16667  0.16667  0.00000  ), band residuals:
 res:  5.33E-12  1.88E-13  1.01E-13  1.47E-13  8.43E-13  1.07E-12  2.32E-12  2.78E-13
 res:  1.14E-12  8.01E-13  3.65E-12  1.38E-12  4.29E-12  1.15E-07
 ene: -2.16E+00 -1.29E+00 -1.29E+00 -1.28E+00 -5.12E-01 -4.88E-01 -2.20E-01 -1.73E-01
 ene: -1.70E-01 -1.54E-01 -1.05E-01 -6.81E-02 -6.40E-02  3.83E-02
 vtowfk : number of one-way 3D ffts skipped in vtowfk until now =89
     eigenvalues (hartree) for   14  bands
              after    2 non-SCF iterations with    4 CG line minimizations
 -2.1622E+00 -1.2864E+00 -1.2851E+00 -1.2792E+00 -5.1213E-01 -4.8799E-01
 -2.2016E-01 -1.7264E-01 -1.7032E-01 -1.5433E-01 -1.0484E-01 -6.8121E-02
 -6.3985E-02  3.8324E-02
 Non-SCF iterations; kpt #     6  , k= (  0.33333  0.16667  0.00000  ), band residuals:
 res:  6.92E-12  2.58E-13  7.16E-14  1.82E-13  7.79E-13  8.32E-13  1.85E-12  1.51E-13
 res:  1.85E-12  6.11E-13  2.18E-12  1.09E-12  3.29E-12  2.74E-06
 ene: -2.16E+00 -1.29E+00 -1.28E+00 -1.28E+00 -4.81E-01 -4.75E-01 -2.33E-01 -2.20E-01
 ene: -1.75E-01 -1.54E-01 -1.19E-01 -9.52E-02 -5.20E-02  5.14E-02
 vtowfk : number of one-way 3D ffts skipped in vtowfk until now =90
     eigenvalues (hartree) for   14  bands
              after    2 non-SCF iterations with    4 CG line minimizations
 -2.1627E+00 -1.2914E+00 -1.2836E+00 -1.2823E+00 -4.8076E-01 -4.7534E-01
 -2.3283E-01 -2.1969E-01 -1.7477E-01 -1.5421E-01 -1.1864E-01 -9.5249E-02
 -5.2000E-02  5.1351E-02
 Non-SCF iterations; kpt #     7  , k= (  0.33333  0.33333  0.00000  ), band residuals:
 res:  8.38E-12  2.33E-13  2.02E-13  6.25E-14  7.75E-13  4.37E-13  7.91E-14  1.42E-12
 res:  1.23E-12  5.84E-13  8.86E-14  7.42E-13  1.68E-12  1.32E-08
 ene: -2.16E+00 -1.29E+00 -1.29E+00 -1.28E+00 -4.70E-01 -4.69E-01 -2.41E-01 -2.04E-01
 ene: -1.87E-01 -1.63E-01 -1.40E-01 -1.13E-01 -3.50E-02  3.30E-02
 vtowfk : number of one-way 3D ffts skipped in vtowfk until now =91
     eigenvalues (hartree) for   14  bands
              after    2 non-SCF iterations with    4 CG line minimizations
 -2.1623E+00 -1.2891E+00 -1.2870E+00 -1.2833E+00 -4.6958E-01 -4.6915E-01
 -2.4066E-01 -2.0408E-01 -1.8654E-01 -1.6312E-01 -1.3995E-01 -1.1309E-01
 -3.4966E-02  3.2994E-02
 Total charge density [el/Bohr^3]
,     Maximum=    8.7317E-01  at reduced coord.    0.8333    0.9167    0.0000
,     Minimum=    3.8132E-07  at reduced coord.    0.2917    0.0417    0.4907
,  Integrated=    2.6000E+01
 ETOT 13  -88.402581038566    -1.407E-10 2.848E-04 3.907E-07
 scprqt: <Vxc>= -1.8385335E-01 hartree

 At SCF step   13, etot is converged : 
  for the second time, diff in etot=  1.407E-10 < toldfe=  1.000E-08
forstrnps: loop on k-points and spins done in parallel
  strhar : before mpi_comm, harstr=   2.7510975054230911E-002   2.7510975054428677E-002   1.3420876170216431        1.0695247815292325E-019   1.3225929517296638E-021  -4.3746789540641991E-014
  strhar : after mpi_comm, harstr=   2.7510975054230911E-002   2.7510975054428677E-002   1.3420876170216431        1.0695247815292325E-019   1.3225929517296638E-021  -4.3746789540641991E-014
  strhar : ehart,ucvol=   202.48916165459889        910.64935442717967     

 Cartesian components of stress tensor (hartree/bohr^3)
  sigma(1 1)=  7.56371963E-04  sigma(3 2)=  0.00000000E+00
  sigma(2 2)=  7.56371963E-04  sigma(3 1)=  0.00000000E+00
  sigma(3 3)=  7.39587874E-04  sigma(2 1)= -1.96739059E-14

   1  1  1  1  1  1  1  1  1  1  1  1
   2  3  3  2  2  3  3  2  2  3  3  2
   3  2  2  3  3  2  2  3  3  2  2  3
 ioarr: writing density data
ioarr: file name is io_files/MoS2_single-layer_scf_o_DEN
ioarr: data written to disk file io_files/MoS2_single-layer_scf_o_DEN
================================================================================

 ----iterations are completed or convergence reached----


 outwf: write wavefunction to file io_files/MoS2_single-layer_scf_o_WFK, with accesswff -1
 leave_test : synchronization done...
 outwf with iomode: -1, cpu:     0.01, wall:     0.01

 === Gap info ===
  >>>> For spin  1
   Minimum optical gap =   1.8493 [eV], located at k-point      :   0.3333  0.3333  0.0000
   Fundamental gap     =   1.8493 [eV], Top of valence bands at :   0.3333  0.3333  0.0000
                                        Bottom of conduction at :   0.3333  0.3333  0.0000

 Cartesian components of stress tensor (hartree/bohr^3)
  sigma(1 1)=  7.56371963E-04  sigma(3 2)=  0.00000000E+00
  sigma(2 2)=  7.56371963E-04  sigma(3 1)=  0.00000000E+00
  sigma(3 3)=  7.39587874E-04  sigma(2 1)= -1.96739059E-14

-Cartesian components of stress tensor (GPa)         [Pressure= -2.2089E+01 GPa]
- sigma(1 1)=  2.22532277E+01  sigma(3 2)=  0.00000000E+00
- sigma(2 2)=  2.22532277E+01  sigma(3 1)=  0.00000000E+00
- sigma(3 3)=  2.17594228E+01  sigma(2 1)= -5.78826197E-10

== END DATASET(S) ==============================================================
================================================================================
  
 -outvars: echo values of variables after computation  --------
            acell      5.9203808995E+00  5.9203808994E+00  3.0000000000E+01 Bohr
              amu      9.59400000E+01  3.20660000E+01
           diemac      4.50000000E+00
             ecut      1.50000000E+01 Hartree
           etotal     -8.8402581039E+01
            fcart      3.0320630478E-28  1.7505624169E-28 -0.0000000000E+00
                      -6.0641260956E-29 -3.5011248337E-29  2.5037377459E-03
                      -2.4256504383E-28 -1.4004499335E-28 -2.5037377459E-03
           istwfk        2    0    0    3    0    0    0
              kpt      0.00000000E+00  0.00000000E+00  0.00000000E+00
                       1.66666667E-01  0.00000000E+00  0.00000000E+00
                       3.33333333E-01  0.00000000E+00  0.00000000E+00
                       5.00000000E-01  0.00000000E+00  0.00000000E+00
                       1.66666667E-01  1.66666667E-01  0.00000000E+00
                       3.33333333E-01  1.66666667E-01  0.00000000E+00
                       3.33333333E-01  3.33333333E-01  0.00000000E+00
         kptrlatt        6    0    0      0    6    0      0    0    1
          kptrlen      3.55222854E+01
P           mkmem           7
            natom           3
            nband          14
            ngfft          24      24     108
             nkpt           7
            nstep         100
             nsym          12
           ntypat           2
              occ      2.000000  2.000000  2.000000  2.000000  2.000000  2.000000
                       2.000000  2.000000  2.000000  2.000000  2.000000  2.000000
                       2.000000  0.000000
           prtvol           3
            rprim      1.0000000000E+00  0.0000000000E+00  0.0000000000E+00
                      -5.0000000000E-01  8.6602540378E-01  0.0000000000E+00
                       0.0000000000E+00  0.0000000000E+00  1.0000000000E+00
          spgroup         187
           strten      7.5637196324E-04  7.5637196333E-04  7.3958787449E-04
                       0.0000000000E+00  0.0000000000E+00 -1.9673905857E-14
           symrel      1  0  0   0  1  0   0  0  1       0 -1  0  -1  0  0   0  0 -1
                      -1 -1  0   1  0  0   0  0 -1      -1  0  0   1  1  0   0  0  1
                       0  1  0  -1 -1  0   0  0  1       1  1  0   0 -1  0   0  0 -1
                       1  0  0   0  1  0   0  0 -1       0 -1  0  -1  0  0   0  0  1
                      -1 -1  0   1  0  0   0  0  1      -1  0  0   1  1  0   0  0 -1
                       0  1  0  -1 -1  0   0  0 -1       1  1  0   0 -1  0   0  0  1
           toldfe      1.00000000E-08 Hartree
            typat      1  2  2
              wtk        0.02778    0.16667    0.16667    0.08333    0.16667    0.33333
                         0.05556
           xangst      0.0000000000E+00  0.0000000000E+00  0.0000000000E+00
                       1.5664653191E+00  9.0439917363E-01  1.5521205663E+00
                       1.5664653191E+00  9.0439917363E-01 -1.5521205663E+00
            xcart      0.0000000000E+00  0.0000000000E+00  0.0000000000E+00
                       2.9601904498E+00  1.7090667530E+00  2.9330827955E+00
                       2.9601904498E+00  1.7090667530E+00 -2.9330827955E+00
             xred      0.0000000000E+00  0.0000000000E+00  0.0000000000E+00
                       6.6666666667E-01  3.3333333333E-01  9.7769426517E-02
                       6.6666666667E-01  3.3333333333E-01 -9.7769426517E-02
            znucl       42.00000   16.00000

================================================================================
  

================================================================================

 Suggested references for the acknowledgment of ABINIT usage.

 The users of ABINIT have little formal obligations with respect to the ABINIT group
 (those specified in the GNU General Public License, http://www.gnu.org/copyleft/gpl.txt).
 However, it is common practice in the scientific literature,
 to acknowledge the efforts of people that have made the research possible.
 In this spirit, please find below suggested citations of work written by ABINIT developers,
 corresponding to implementations inside of ABINIT that you have used in the present run.
 Note also that it will be of great value to readers of publications presenting these results,
 to read papers enabling them to understand the theoretical formalism and details
 of the ABINIT implementation.
 For information on why they are suggested, see also http://www.abinit.org/about/?text=acknowledgments.

 [1] ABINIT : First-principles approach of materials and nanosystem properties.
 X. Gonze, B. Amadon, P.-M. Anglade, J.-M. Beuken, F. Bottin, P. Boulanger, F. Bruneval,
 D. Caliste, R. Caracas, M. Cote, T. Deutsch, L. Genovese, Ph. Ghosez, M. Giantomassi
 S. Goedecker, D.R. Hamann, P. Hermet, F. Jollet, G. Jomard, S. Leroux, M. Mancini, S. Mazevet,
 M.J.T. Oliveira, G. Onida, Y. Pouillon, T. Rangel, G.-M. Rignanese, D. Sangalli, R. Shaltaf,
 M. Torrent, M.J. Verstraete, G. Zerah, J.W. Zwanziger
 Computer Phys. Comm. 180, 2582-2615 (2009).
 Comment : the third generic paper describing the ABINIT project.
 Note that a version of this paper, that is not formatted for Computer Phys. Comm. 
 is available at http://www.abinit.org/about/ABINIT_CPC_v10.pdf .
 The licence allows the authors to put it on the Web.

 [2] A brief introduction to the ABINIT software package.
 X. Gonze, G.-M. Rignanese, M. Verstraete, J.-M. Beuken, Y. Pouillon, R. Caracas, F. Jollet,
 M. Torrent, G. Zerah, M. Mikami, Ph. Ghosez, M. Veithen, J.-Y. Raty, V. Olevano, F. Bruneval,
 L. Reining, R. Godby, G. Onida, D.R. Hamann, and D.C. Allan.
 Z. Kristallogr. 220, 558-562 (2005).
 Comment : the second generic paper describing the ABINIT project. Note that this paper
 should be cited especially if you are using the GW part of ABINIT, as several authors
 of this part are not in the list of authors of the first or third paper.
 The .pdf of the latter paper is available at http://www.abinit.org/about/zfk_0505-06_558-562.pdf.
 Note that it should not redistributed (Copyright by Oldenburg Wissenshaftverlag,
 the licence allows the authors to put it on the Web).


 And optionally :

 [3] First-principles computation of material properties : the ABINIT software project. 
 X. Gonze, J.-M. Beuken, R. Caracas, F. Detraux, M. Fuchs, G.-M. Rignanese, L. Sindic,
 M. Verstraete, G. Zerah, F. Jollet, M. Torrent, A. Roy, M. Mikami, Ph. Ghosez, J.-Y. Raty, D.C. Allan.
 Computational Materials Science 25, 478-492 (2002). http://dx.doi.org/10.1016/S0927-0256(02)00325-7
 Comment : the original paper describing the ABINIT project.

 [4] Fast radix 2, 3, 4 and 5 kernels for Fast Fourier Transformations
 on computers with overlapping multiply-add instructions.
 S. Goedecker, SIAM J. on Scientific Computing 18, 1605 (1997).
 Proc.   0 individual time (sec): cpu=         15.2  wall=         15.2

 Calculation completed.
.Delivered    2 WARNINGs and   4 COMMENTs to log file.
