
.Version 9.7.4 of ABINIT 
.(MPI version, prepared for a x86_64_linux_gnu9.4 computer) 

.Copyright (C) 1998-2022 ABINIT group . 
 ABINIT comes with ABSOLUTELY NO WARRANTY.
 It is free software, and you are welcome to redistribute it
 under certain conditions (GNU General Public License,
 see ~abinit/COPYING or http://www.gnu.org/copyleft/gpl.txt).

 ABINIT is a project of the Universite Catholique de Louvain,
 Corning Inc. and other collaborators, see ~abinit/doc/developers/contributors.txt .
 Please read https://docs.abinit.org/theory/acknowledgments for suggested
 acknowledgments of the ABINIT effort.
 For more information, see https://www.abinit.org .

.Starting date : Thu 22 Sep 2022.
- ( at 09h36 )
  
- input  file    -> inputs_new/01hbn.in
- output file    -> 01hbn_new.out
- root for input  files -> io_dir_new/hbn_in
- root for output files -> io_dir_new/hbn_out


 DATASET    1 : space group P6_3/m m c (#194); Bravais hP (primitive hexag.)
================================================================================
 Values of the parameters that define the memory need for DATASET  1.
     intxc =       0    ionmov =       0      iscf =       7    lmnmax =       4
     lnmax =       4     mgfft =      50  mpssoang =       2    mqgrid =    3001
     natom =       4  nloc_mem =       1    nspden =       1   nspinor =       1
    nsppol =       1      nsym =      12    n1xccc =    2501    ntypat =       2
    occopt =       1   xclevel =       2
-    mband =          10        mffmem =           1         mkmem =           2
       mpw =         508          nfft =       20000          nkpt =           2
================================================================================
P This job should need less than                       7.608 Mbytes of memory.
  Rough estimation (10% accuracy) of disk space for files :
_ WF disk file :      0.157 Mbytes ; DEN or POT disk file :      0.155 Mbytes.
================================================================================


 DATASET    2 : space group P6_3/m m c (#194); Bravais hP (primitive hexag.)
================================================================================
 Values of the parameters that define the memory need for DATASET  2.
     intxc =       0    ionmov =       0      iscf =      -2    lmnmax =       4
     lnmax =       4     mgfft =      50  mpssoang =       2    mqgrid =    3001
     natom =       4  nloc_mem =       1    nspden =       1   nspinor =       1
    nsppol =       1      nsym =      12    n1xccc =    2501    ntypat =       2
    occopt =       1   xclevel =       2
-    mband =          10        mffmem =           1         mkmem =           7
       mpw =        1016          nfft =       20000          nkpt =           7
================================================================================
P This job should need less than                       6.147 Mbytes of memory.
  Rough estimation (10% accuracy) of disk space for files :
_ WF disk file :      1.087 Mbytes ; DEN or POT disk file :      0.155 Mbytes.
================================================================================


 DATASET    3 : space group P6_3/m m c (#194); Bravais hP (primitive hexag.)
================================================================================
 Values of the parameters that define the memory need for DATASET  3 (RF).
     intxc =       0      iscf =       7    lmnmax =       4     lnmax =       4
     mgfft =      50  mpssoang =       2    mqgrid =    3001     natom =       4
  nloc_mem =       1    nspden =       1   nspinor =       1    nsppol =       1
      nsym =      12    n1xccc =    2501    ntypat =       2    occopt =       1
   xclevel =       2
-    mband =           9        mffmem =           1         mkmem =           4
-   mkqmem =           4        mk1mem =           4           mpw =        1016
      nfft =       20000          nkpt =           4
================================================================================
P This job should need less than                       7.371 Mbytes of memory.
  Rough estimation (10% accuracy) of disk space for files :
_ WF disk file :      0.560 Mbytes ; DEN or POT disk file :      0.155 Mbytes.
================================================================================


 DATASET    4 : space group P6_3/m m c (#194); Bravais hP (primitive hexag.)
================================================================================
 Values of the parameters that define the memory need for DATASET  4 (RF).
     intxc =       0      iscf =       7    lmnmax =       4     lnmax =       4
     mgfft =      50  mpssoang =       2    mqgrid =    3001     natom =       4
  nloc_mem =       1    nspden =       1   nspinor =       1    nsppol =       1
      nsym =      12    n1xccc =    2501    ntypat =       2    occopt =       1
   xclevel =       2
-    mband =           9        mffmem =           1         mkmem =           4
-   mkqmem =           4        mk1mem =           4           mpw =        1016
      nfft =       20000          nkpt =           4
================================================================================
P This job should need less than                       7.371 Mbytes of memory.
  Rough estimation (10% accuracy) of disk space for files :
_ WF disk file :      0.560 Mbytes ; DEN or POT disk file :      0.155 Mbytes.
================================================================================


 DATASET    5 : space group P6_3/m m c (#194); Bravais hP (primitive hexag.)
================================================================================
 Values of the parameters that define the memory need for DATASET  5 (RF).
     intxc =       0      iscf =       7    lmnmax =       4     lnmax =       4
     mgfft =      50  mpssoang =       2    mqgrid =    3001     natom =       4
  nloc_mem =       1    nspden =       1   nspinor =       1    nsppol =       1
      nsym =      12    n1xccc =    2501    ntypat =       2    occopt =       1
   xclevel =       2
-    mband =           9        mffmem =           1         mkmem =           4
-   mkqmem =           4        mk1mem =           4           mpw =        1016
      nfft =       20000          nkpt =           4
================================================================================
P This job should need less than                       8.470 Mbytes of memory.
  Rough estimation (10% accuracy) of disk space for files :
_ WF disk file :      0.560 Mbytes ; DEN or POT disk file :      0.155 Mbytes.
================================================================================

--------------------------------------------------------------------------------
------------- Echo of variables that govern the present computation ------------
--------------------------------------------------------------------------------
-
- outvars: echo of selected default values                                      
-   iomode0 =  0 , fftalg0 =112 , wfoptalg0 =  0
-
- outvars: echo of global parameters not present in the input file              
-  max_nthreads =    1
-
 -outvars: echo values of preprocessed input variables --------
-          iomode           3
            acell      4.7163728000E+00  4.7163728000E+00  1.2175836200E+01 Bohr
              amu      1.08110000E+01  1.40067400E+01
           diemac      4.50000000E+00
             ecut      2.00000000E+01 Hartree
-          fftalg         112
           getddk1          0
           getddk2          0
           getddk3          0
           getddk4          3
           getddk5          0
           getden1          0
           getden2          1
           getden3          0
           getden4          0
           getden5          0
           getwfk1          0
           getwfk2          1
           getwfk3          1
           getwfk4          1
           getwfk5          1
             iscf1          7
             iscf2         -2
             iscf3          7
             iscf4          7
             iscf5          7
           istwfk1       2    3
           istwfk2       1    0    0    1    0    0    0
           istwfk3       1    1    1    1
           istwfk4       1    1    1    1
           istwfk5       1    1    1    1
              ixc          11
           jdtset        1    2    3    4    5
              kpt1     0.00000000E+00  0.00000000E+00  0.00000000E+00
                       5.00000000E-01  0.00000000E+00  0.00000000E+00
              kpt2     0.00000000E+00  0.00000000E+00  0.00000000E+00
                       1.66666667E-01  0.00000000E+00  0.00000000E+00
                       3.33333333E-01  0.00000000E+00  0.00000000E+00
                       5.00000000E-01  0.00000000E+00  0.00000000E+00
                       1.66666667E-01  1.66666667E-01  0.00000000E+00
                       3.33333333E-01  1.66666667E-01  0.00000000E+00
                       3.33333333E-01  3.33333333E-01  0.00000000E+00
              kpt3     0.00000000E+00  0.00000000E+00  0.00000000E+00
                       5.00000000E-01  0.00000000E+00  0.00000000E+00
                       0.00000000E+00  5.00000000E-01  0.00000000E+00
                       5.00000000E-01  5.00000000E-01  0.00000000E+00
              kpt4     0.00000000E+00  0.00000000E+00  0.00000000E+00
                       5.00000000E-01  0.00000000E+00  0.00000000E+00
                       0.00000000E+00  5.00000000E-01  0.00000000E+00
                       5.00000000E-01  5.00000000E-01  0.00000000E+00
              kpt5     0.00000000E+00  0.00000000E+00  0.00000000E+00
                       5.00000000E-01  0.00000000E+00  0.00000000E+00
                       0.00000000E+00  5.00000000E-01  0.00000000E+00
                       5.00000000E-01  5.00000000E-01  0.00000000E+00
           kptopt1          1
           kptopt2          1
           kptopt3          3
           kptopt4          3
           kptopt5          3
         kptrlatt1       2    0    0      0    2    0      0    0    1
         kptrlatt2       6    0    0      0    6    0      0    0    1
         kptrlatt3       2    0    0      0    2    0      0    0    1
         kptrlatt4       2    0    0      0    2    0      0    0    1
         kptrlatt5       2    0    0      0    2    0      0    0    1
          kptrlen1     9.43274560E+00
          kptrlen2     1.21758362E+01
          kptrlen3     9.43274560E+00
          kptrlen4     9.43274560E+00
          kptrlen5     9.43274560E+00
P           mkmem1          2
P           mkmem2          7
P           mkmem3          4
P           mkmem4          4
P           mkmem5          4
P          mkqmem1          2
P          mkqmem2          7
P          mkqmem3          4
P          mkqmem4          4
P          mkqmem5          4
P          mk1mem1          2
P          mk1mem2          7
P          mk1mem3          4
P          mk1mem4          4
P          mk1mem5          4
            natom           4
            nband1         10
            nband2         10
            nband3          9
            nband4          9
            nband5          9
           nbdbuf1          0
           nbdbuf2          2
           nbdbuf3          0
           nbdbuf4          0
           nbdbuf5          0
           ndtset           5
            ngfft          20      20      50
             nkpt1          2
             nkpt2          7
             nkpt3          4
             nkpt4          4
             nkpt5          4
             nqpt1          0
             nqpt2          0
             nqpt3          1
             nqpt4          1
             nqpt5          1
            nstep         100
             nsym          12
           ntypat           2
              occ1     2.000000  2.000000  2.000000  2.000000  2.000000  2.000000
                       2.000000  2.000000  0.000000  0.000000
              occ3     2.000000  2.000000  2.000000  2.000000  2.000000  2.000000
                       2.000000  2.000000  0.000000
              occ4     2.000000  2.000000  2.000000  2.000000  2.000000  2.000000
                       2.000000  2.000000  0.000000
              occ5     2.000000  2.000000  2.000000  2.000000  2.000000  2.000000
                       2.000000  2.000000  0.000000
        optdriver1          0
        optdriver2          0
        optdriver3          1
        optdriver4          1
        optdriver5          1
           prtpot1          0
           prtpot2          0
           prtpot3          1
           prtpot4          1
           prtpot5          1
          prtkbff1          0
          prtkbff2          1
          prtkbff3          0
          prtkbff4          0
          prtkbff5          0
            prtwf1          1
            prtwf2          1
            prtwf3          1
            prtwf4          0
            prtwf5          0
              qpt1     0.00000000E+00  0.00000000E+00  0.00000000E+00
              qpt2     0.00000000E+00  0.00000000E+00  0.00000000E+00
              qpt3     0.00000000E+00  0.00000000E+00  0.00000000E+00
              qpt4     0.00000000E+00  0.00000000E+00  0.00000000E+00
              qpt5     5.00000000E-01  0.00000000E+00  0.00000000E+00
          rfatpol           1       4
            rfdir           1       1       1
           rfelfd1          0
           rfelfd2          0
           rfelfd3          2
           rfelfd4          3
           rfelfd5          0
           rfphon1          0
           rfphon2          0
           rfphon3          0
           rfphon4          1
           rfphon5          1
            rprim      1.0000000000E+00  0.0000000000E+00  0.0000000000E+00
                      -5.0000000000E-01  8.6602540378E-01  0.0000000000E+00
                       0.0000000000E+00  0.0000000000E+00  1.0000000000E+00
          spgroup         194
        symmorphi           0
           symrel      1  0  0   0  1  0   0  0  1       0 -1  0  -1  0  0   0  0 -1
                      -1 -1  0   1  0  0   0  0 -1      -1  0  0   1  1  0   0  0  1
                       0  1  0  -1 -1  0   0  0  1       1  1  0   0 -1  0   0  0 -1
                       1  0  0   0  1  0   0  0 -1       0 -1  0  -1  0  0   0  0  1
                      -1 -1  0   1  0  0   0  0  1      -1  0  0   1  1  0   0  0 -1
                       0  1  0  -1 -1  0   0  0 -1       1  1  0   0 -1  0   0  0  1
           toldfe1     1.00000000E-10 Hartree
           toldfe2     0.00000000E+00 Hartree
           toldfe3     0.00000000E+00 Hartree
           toldfe4     1.00000000E-10 Hartree
           toldfe5     1.00000000E-10 Hartree
           tolwfr1     0.00000000E+00
           tolwfr2     1.00000000E-08
           tolwfr3     1.00000000E-22
           tolwfr4     0.00000000E+00
           tolwfr5     0.00000000E+00
            typat      1  2  1  2
              wtk1       0.25000    0.75000
              wtk2       0.02778    0.16667    0.16667    0.08333    0.16667    0.33333
                         0.05556
              wtk3       0.25000    0.25000    0.25000    0.25000
              wtk4       0.25000    0.25000    0.25000    0.25000
              wtk5       0.25000    0.25000    0.25000    0.25000
           xangst      1.2478984965E+00  7.2047453286E-01  0.0000000000E+00
                      -1.2478984965E+00 -7.2047453286E-01  0.0000000000E+00
                      -1.2478984965E+00 -7.2047453286E-01  3.2215875063E+00
                       1.2478984965E+00  7.2047453286E-01  3.2215875063E+00
            xcart      2.3581864000E+00  1.3614995528E+00  0.0000000000E+00
                      -2.3581864000E+00 -1.3614995528E+00  0.0000000000E+00
                      -2.3581864000E+00 -1.3614995528E+00  6.0879181000E+00
                       2.3581864000E+00  1.3614995528E+00  6.0879181000E+00
             xred      6.6666666667E-01  3.3333333333E-01  0.0000000000E+00
                      -6.6666666667E-01 -3.3333333333E-01  0.0000000000E+00
                      -6.6666666667E-01 -3.3333333333E-01  5.0000000000E-01
                       6.6666666667E-01  3.3333333333E-01  5.0000000000E-01
            znucl        5.00000    7.00000

================================================================================

 chkinp: Checking input parameters for consistency, jdtset=   1.

 chkinp: Checking input parameters for consistency, jdtset=   2.

 chkinp: Checking input parameters for consistency, jdtset=   3.

 chkinp: Checking input parameters for consistency, jdtset=   4.

 chkinp: Checking input parameters for consistency, jdtset=   5.

================================================================================
== DATASET  1 ==================================================================
-   mpi_nproc: 1, omp_nthreads: 1 (-1 if OMP is not activated)


--- !DatasetInfo
iteration_state: {dtset: 1, }
dimensions: {natom: 4, nkpt: 2, mband: 10, nsppol: 1, nspinor: 1, nspden: 1, mpw: 508, }
cutoff_energies: {ecut:  20.0, pawecutdg:  -1.0, }
electrons: {nelect:   1.60000000E+01, charge:   0.00000000E+00, occopt:   1.00000000E+00, tsmear:   1.00000000E-02, }
meta: {optdriver: 0, ionmov: 0, optcell: 0, iscf: 7, paral_kgb: 0, }
...

 Exchange-correlation functional for the present dataset will be:
  GGA: Perdew-Burke-Ernzerhof functional - ixc=11
 Citation for XC functional:
  J.P.Perdew, K.Burke, M.Ernzerhof, PRL 77, 3865 (1996)

 Real(R)+Recip(G) space primitive vectors, cartesian coordinates (Bohr,Bohr^-1):
 R(1)=  4.7163728  0.0000000  0.0000000  G(1)=  0.2120273  0.1224140  0.0000000
 R(2)= -2.3581864  4.0844987  0.0000000  G(2)=  0.0000000  0.2448281  0.0000000
 R(3)=  0.0000000  0.0000000 12.1758362  G(3)=  0.0000000  0.0000000  0.0821299
 Unit cell volume ucvol=  2.3455553E+02 bohr^3
 Angles (23,13,12)=  9.00000000E+01  9.00000000E+01  1.20000000E+02 degrees

 getcut: wavevector=  0.0000  0.0000  0.0000  ngfft=  20  20  50
         ecut(hartree)=     20.000   => boxcut(ratio)=   2.03982

--- Pseudopotential description ------------------------------------------------
- pspini: atom type   1  psp file is B.psp8
- pspatm: opening atomic psp file    B.psp8
- B     ONCVPSP-3.2.3.1  r_core=   1.20849   1.20849
-  5.00000   3.00000    170503                znucl, zion, pspdat
    8   11    1    4       600   0.00000      pspcod,pspxc,lmax,lloc,mmax,r2well
    5.99000000000000    2.90000000000000    0.00000000000000   rchrg,fchrg,qchrg
     nproj     2     2
     extension_switch     1
  pspatm : epsatm=    3.38844677
         --- l  ekb(1:nproj) -->
             0    8.382104    1.234201
             1   -3.719492   -0.867526
 pspatm: atomic psp has been read  and splines computed

- pspini: atom type   2  psp file is N.psp8
- pspatm: opening atomic psp file    N.psp8
- N     ONCVPSP-3.2.3.1  r_core=   1.20551   1.35824
-  7.00000   5.00000    170503                znucl, zion, pspdat
    8   11    1    4       600   0.00000      pspcod,pspxc,lmax,lloc,mmax,r2well
    5.99000000000000    4.00000000000000    0.00000000000000   rchrg,fchrg,qchrg
     nproj     2     2
     extension_switch     1
  pspatm : epsatm=    5.20978323
         --- l  ekb(1:nproj) -->
             0    7.494509    0.636305
             1   -4.293905   -1.006988
 pspatm: atomic psp has been read  and splines computed

   2.75143360E+02                                ecore*ucvol(ha*bohr**3)
--------------------------------------------------------------------------------

_setup2: Arith. and geom. avg. npw (full set) are    1011.250    1011.216

================================================================================

--- !BeginCycle
iteration_state: {dtset: 1, }
solver: {iscf: 7, nstep: 100, nline: 4, wfoptalg: 0, }
tolerances: {toldfe: 1.00E-10, }
...

     iter   Etot(hartree)      deltaE(h)  residm     vres2
 ETOT  1  -26.442047173636    -2.644E+01 6.017E-02 2.076E+02
 ETOT  2  -26.510762701435    -6.872E-02 1.897E-03 8.239E+01
 ETOT  3  -26.590012652634    -7.925E-02 4.875E-03 4.759E+00
 ETOT  4  -26.593733546801    -3.721E-03 1.188E-03 2.103E-02
 ETOT  5  -26.593739154370    -5.608E-06 3.413E-03 1.837E-03
 ETOT  6  -26.593739359305    -2.049E-07 8.731E-04 3.534E-04
 ETOT  7  -26.593739540251    -1.809E-07 1.925E-03 2.724E-05
 ETOT  8  -26.593739552309    -1.206E-08 2.999E-04 4.764E-08
 ETOT  9  -26.593739552332    -2.274E-11 5.005E-04 4.827E-10
 ETOT 10  -26.593739552333    -5.187E-13 6.225E-05 4.186E-11

 At SCF step   10, etot is converged : 
  for the second time, diff in etot=  5.187E-13 < toldfe=  1.000E-10

 Cartesian components of stress tensor (hartree/bohr^3)
  sigma(1 1)=  6.40718307E-04  sigma(3 2)=  0.00000000E+00
  sigma(2 2)=  6.40718307E-04  sigma(3 1)=  0.00000000E+00
  sigma(3 3)=  1.42956511E-03  sigma(2 1)=  0.00000000E+00


--- !ResultsGS
iteration_state: {dtset: 1, }
comment   : Summary of ground state results
lattice_vectors:
- [  4.7163728,   0.0000000,   0.0000000, ]
- [ -2.3581864,   4.0844987,   0.0000000, ]
- [  0.0000000,   0.0000000,  12.1758362, ]
lattice_lengths: [   4.71637,    4.71637,   12.17584, ]
lattice_angles: [ 90.000,  90.000, 120.000, ] # degrees, (23, 13, 12)
lattice_volume:   2.3455553E+02
convergence: {deltae: -5.187E-13, res2:  4.186E-11, residm:  6.225E-05, diffor: null, }
etotal    :  -2.65937396E+01
entropy   :   0.00000000E+00
fermie    :   1.17493605E-01
cartesian_stress_tensor: # hartree/bohr^3
- [  6.40718307E-04,   0.00000000E+00,   0.00000000E+00, ]
- [  0.00000000E+00,   6.40718307E-04,   0.00000000E+00, ]
- [  0.00000000E+00,   0.00000000E+00,   1.42956511E-03, ]
pressure_GPa:  -2.6587E+01
xred      :
- [  6.6667E-01,   3.3333E-01,   0.0000E+00,  B]
- [ -6.6667E-01,  -3.3333E-01,   0.0000E+00,  N]
- [ -6.6667E-01,  -3.3333E-01,   5.0000E-01,  B]
- [  6.6667E-01,   3.3333E-01,   5.0000E-01,  N]
cartesian_forces: # hartree/bohr
- [  9.35386179E-25,  -5.40045462E-25,  -0.00000000E+00, ]
- [ -9.35386179E-25,  -1.67414093E-23,  -0.00000000E+00, ]
- [  9.35386179E-25,  -5.40045462E-25,  -0.00000000E+00, ]
- [ -9.35386179E-25,   1.78215003E-23,  -0.00000000E+00, ]
force_length_stats: {min:   1.08009092E-24, max:   1.78460309E-23, mean:   9.19343324E-24, }
...

 Integrated electronic density in atomic spheres:
 ------------------------------------------------
 Atom  Sphere_radius  Integrated_density
    1        2.00000          3.53027648
    2        2.00000          5.85629443
    3        2.00000          3.53027643
    4        2.00000          5.85629459
================================================================================

 ----iterations are completed or convergence reached----

 Mean square residual over all n,k,spin=   31.123E-07; max=  62.247E-06
 reduced coordinates (array xred) for    4 atoms
       0.666666666667      0.333333333333      0.000000000000
      -0.666666666667     -0.333333333333      0.000000000000
      -0.666666666667     -0.333333333333      0.500000000000
       0.666666666667      0.333333333333      0.500000000000
 rms dE/dt=  2.9263E-23; max dE/dt=  7.0586E-23; dE/dt below (all hartree)
    1      -0.000000000000      0.000000000000      0.000000000000
    2       0.000000000000      0.000000000000      0.000000000000
    3      -0.000000000000      0.000000000000      0.000000000000
    4       0.000000000000     -0.000000000000      0.000000000000

 cartesian coordinates (angstrom) at end:
    1      1.24789849648690     0.72047453286435     0.00000000000000
    2     -1.24789849648690    -0.72047453286435     0.00000000000000
    3     -1.24789849648690    -0.72047453286435     3.22158750628254
    4      1.24789849648690     0.72047453286435     3.22158750628254

 cartesian forces (hartree/bohr) at end:
    1      0.00000000000000    -0.00000000000000    -0.00000000000000
    2     -0.00000000000000    -0.00000000000000    -0.00000000000000
    3      0.00000000000000    -0.00000000000000    -0.00000000000000
    4     -0.00000000000000     0.00000000000000    -0.00000000000000
 frms,max,avg= 7.0826298E-24 1.7821500E-23   0.000E+00  0.000E+00  0.000E+00 h/b

 cartesian forces (eV/Angstrom) at end:
    1      0.00000000000000    -0.00000000000000    -0.00000000000000
    2     -0.00000000000000    -0.00000000000000    -0.00000000000000
    3      0.00000000000000    -0.00000000000000    -0.00000000000000
    4     -0.00000000000000     0.00000000000000    -0.00000000000000
 frms,max,avg= 3.6420344E-22 9.1641831E-22   0.000E+00  0.000E+00  0.000E+00 e/A
 length scales=  4.716372800000  4.716372800000 12.175836200000 bohr
              =  2.495796992974  2.495796992974  6.443175012565 angstroms
 prteigrs : about to open file io_dir_new/hbn_out_DS1_EIG
 Fermi (or HOMO) energy (hartree) =   0.11749   Average Vxc (hartree)=  -0.37683
 Eigenvalues (hartree) for nkpt=   2  k points:
 kpt#   1, nband= 10, wtk=  0.25000, kpt=  0.0000  0.0000  0.0000 (reduced coord)
  -0.53378   -0.51958   -0.11213   -0.01909    0.08503    0.08503    0.08575    0.08575
   0.32160    0.53141
 prteigrs : prtvol=0 or 1, do not print more k-points.


--- !EnergyTerms
iteration_state     : {dtset: 1, }
comment             : Components of total free energy in Hartree
kinetic             :  1.89331315812106E+01
hartree             :  7.89093715364838E+00
xc                  : -8.71710127352005E+00
Ewald energy        : -1.90009856095709E+01
psp_core            :  1.17304144207552E+00
local_psp           : -2.47640447173434E+01
non_local_psp       : -2.10871812883272E+00
total_energy        : -2.65937395523326E+01
total_energy_eV     : -7.23652455231387E+02
band_energy         : -2.04636553983590E+00
...


 Cartesian components of stress tensor (hartree/bohr^3)
  sigma(1 1)=  6.40718307E-04  sigma(3 2)=  0.00000000E+00
  sigma(2 2)=  6.40718307E-04  sigma(3 1)=  0.00000000E+00
  sigma(3 3)=  1.42956511E-03  sigma(2 1)=  0.00000000E+00

-Cartesian components of stress tensor (GPa)         [Pressure= -2.6587E+01 GPa]
- sigma(1 1)=  1.88505802E+01  sigma(3 2)=  0.00000000E+00
- sigma(2 2)=  1.88505802E+01  sigma(3 1)=  0.00000000E+00
- sigma(3 3)=  4.20592505E+01  sigma(2 1)=  0.00000000E+00

================================================================================
== DATASET  2 ==================================================================
-   mpi_nproc: 1, omp_nthreads: 1 (-1 if OMP is not activated)


--- !DatasetInfo
iteration_state: {dtset: 2, }
dimensions: {natom: 4, nkpt: 7, mband: 10, nsppol: 1, nspinor: 1, nspden: 1, mpw: 1016, }
cutoff_energies: {ecut:  20.0, pawecutdg:  -1.0, }
electrons: {nelect:   1.60000000E+01, charge:   0.00000000E+00, occopt:   1.00000000E+00, tsmear:   1.00000000E-02, }
meta: {optdriver: 0, ionmov: 0, optcell: 0, iscf: -2, paral_kgb: 0, }
...

 mkfilename : getwfk/=0, take file _WFK from output of DATASET   1.

 mkfilename : getden/=0, take file _DEN from output of DATASET   1.

 Exchange-correlation functional for the present dataset will be:
  GGA: Perdew-Burke-Ernzerhof functional - ixc=11
 Citation for XC functional:
  J.P.Perdew, K.Burke, M.Ernzerhof, PRL 77, 3865 (1996)

 Real(R)+Recip(G) space primitive vectors, cartesian coordinates (Bohr,Bohr^-1):
 R(1)=  4.7163728  0.0000000  0.0000000  G(1)=  0.2120273  0.1224140  0.0000000
 R(2)= -2.3581864  4.0844987  0.0000000  G(2)=  0.0000000  0.2448281  0.0000000
 R(3)=  0.0000000  0.0000000 12.1758362  G(3)=  0.0000000  0.0000000  0.0821299
 Unit cell volume ucvol=  2.3455553E+02 bohr^3
 Angles (23,13,12)=  9.00000000E+01  9.00000000E+01  1.20000000E+02 degrees

 getcut: wavevector=  0.0000  0.0000  0.0000  ngfft=  20  20  50
         ecut(hartree)=     20.000   => boxcut(ratio)=   2.03982
--------------------------------------------------------------------------------

-inwffil : will read wavefunctions from disk file io_dir_new/hbn_out_DS1_WFK.nc

================================================================================
 prteigrs : about to open file io_dir_new/hbn_out_DS2_EIG
 Non-SCF case, kpt    1 (  0.00000  0.00000  0.00000), residuals and eigenvalues=
  4.67E-15  4.81E-15  3.07E-15  4.12E-15  6.21E-15  6.13E-15  6.08E-15  6.47E-15
  5.33E-15  1.11E-04
 -5.3378E-01 -5.1958E-01 -1.1213E-01 -1.9094E-02  8.5027E-02  8.5027E-02
  8.5753E-02  8.5754E-02  3.2160E-01  5.3124E-01
 prteigrs : prtvol=0 or 1, do not print more k-points.



--- !ResultsGS
iteration_state: {dtset: 2, }
comment   : Summary of ground state results
lattice_vectors:
- [  4.7163728,   0.0000000,   0.0000000, ]
- [ -2.3581864,   4.0844987,   0.0000000, ]
- [  0.0000000,   0.0000000,  12.1758362, ]
lattice_lengths: [   4.71637,    4.71637,   12.17584, ]
lattice_angles: [ 90.000,  90.000, 120.000, ] # degrees, (23, 13, 12)
lattice_volume:   2.3455553E+02
convergence: {deltae:  0.000E+00, res2:  0.000E+00, residm:  9.872E-09, diffor:  0.000E+00, }
etotal    :  -2.65937396E+01
entropy   :   0.00000000E+00
fermie    :   1.17493605E-01
cartesian_stress_tensor: null
pressure_GPa: null
xred      :
- [  6.6667E-01,   3.3333E-01,   0.0000E+00,  B]
- [ -6.6667E-01,  -3.3333E-01,   0.0000E+00,  N]
- [ -6.6667E-01,  -3.3333E-01,   5.0000E-01,  B]
- [  6.6667E-01,   3.3333E-01,   5.0000E-01,  N]
cartesian_forces: null
force_length_stats: {min: null, max: null, mean: null, }
...

 Integrated electronic density in atomic spheres:
 ------------------------------------------------
 Atom  Sphere_radius  Integrated_density
    1        2.00000          3.53027648
    2        2.00000          5.85629443
    3        2.00000          3.53027643
    4        2.00000          5.85629459
================================================================================

 ----iterations are completed or convergence reached----

 Mean square residual over all n,k,spin=   41.623E-10; max=  98.721E-10
 reduced coordinates (array xred) for    4 atoms
       0.666666666667      0.333333333333      0.000000000000
      -0.666666666667     -0.333333333333      0.000000000000
      -0.666666666667     -0.333333333333      0.500000000000
       0.666666666667      0.333333333333      0.500000000000

 cartesian coordinates (angstrom) at end:
    1      1.24789849648690     0.72047453286435     0.00000000000000
    2     -1.24789849648690    -0.72047453286435     0.00000000000000
    3     -1.24789849648690    -0.72047453286435     3.22158750628254
    4      1.24789849648690     0.72047453286435     3.22158750628254
 length scales=  4.716372800000  4.716372800000 12.175836200000 bohr
              =  2.495796992974  2.495796992974  6.443175012565 angstroms
 prteigrs : about to open file io_dir_new/hbn_out_DS2_EIG
 Eigenvalues (hartree) for nkpt=   7  k points:
 kpt#   1, nband= 10, wtk=  0.02778, kpt=  0.0000  0.0000  0.0000 (reduced coord)
  -0.53378   -0.51958   -0.11213   -0.01909    0.08503    0.08503    0.08575    0.08575
   0.32160    0.53124
 prteigrs : prtvol=0 or 1, do not print more k-points.


================================================================================
== DATASET  3 ==================================================================
-   mpi_nproc: 1, omp_nthreads: 1 (-1 if OMP is not activated)


--- !DatasetInfo
iteration_state: {dtset: 3, }
dimensions: {natom: 4, nkpt: 4, mband: 9, nsppol: 1, nspinor: 1, nspden: 1, mpw: 1016, }
cutoff_energies: {ecut:  20.0, pawecutdg:  -1.0, }
electrons: {nelect:   1.60000000E+01, charge:   0.00000000E+00, occopt:   1.00000000E+00, tsmear:   1.00000000E-02, }
meta: {optdriver: 1, rfelfd: 2, }
...

 mkfilename : getwfk/=0, take file _WFK from output of DATASET   1.

 Exchange-correlation functional for the present dataset will be:
  GGA: Perdew-Burke-Ernzerhof functional - ixc=11
 Citation for XC functional:
  J.P.Perdew, K.Burke, M.Ernzerhof, PRL 77, 3865 (1996)

 Real(R)+Recip(G) space primitive vectors, cartesian coordinates (Bohr,Bohr^-1):
 R(1)=  4.7163728  0.0000000  0.0000000  G(1)=  0.2120273  0.1224140  0.0000000
 R(2)= -2.3581864  4.0844987  0.0000000  G(2)=  0.0000000  0.2448281  0.0000000
 R(3)=  0.0000000  0.0000000 12.1758362  G(3)=  0.0000000  0.0000000  0.0821299
 Unit cell volume ucvol=  2.3455553E+02 bohr^3
 Angles (23,13,12)=  9.00000000E+01  9.00000000E+01  1.20000000E+02 degrees
 setup1 : take into account q-point for computing boxcut.

 getcut: wavevector=  0.0000  0.0000  0.0000  ngfft=  20  20  50
         ecut(hartree)=     20.000   => boxcut(ratio)=   2.03982
--------------------------------------------------------------------------------


 ==>  initialize data related to q vector <== 

 The list of irreducible perturbations for this q vector is:
    1)    idir= 1    ipert=   5
    2)    idir= 2    ipert=   5
    3)    idir= 3    ipert=   5

================================================================================

--------------------------------------------------------------------------------
 Perturbation wavevector (in red.coord.)   0.000000  0.000000  0.000000
 Perturbation : derivative vs k along direction   1

 dfpt_looppert : COMMENT -
  In a d/dk calculation, iscf is set to -3 automatically.
 The set of symmetries contains only one element for this perturbation.
 symkpt : not enough symmetry to change the number of k points.

--------------------------------------------------------------------------------

--------------------------------------------------------------------------------

 Initialisation of the first-order wave-functions :
  ireadwf=   0

--- !BeginCycle
iteration_state: {dtset: 3, }
solver: {iscf: 7, nstep: 100, nline: 4, wfoptalg: 0, }
tolerances: {tolwfr: 1.00E-22, }
...

     iter   2DEtotal(Ha)        deltaE(Ha) residm    vres2
-ETOT  1  -52.369467750696     -5.237E+01 5.820E-01 0.000E+00
 ETOT  2  -52.452558005338     -8.309E-02 2.067E-03 0.000E+00
 ETOT  3  -52.452877230781     -3.192E-04 9.954E-05 0.000E+00
 ETOT  4  -52.452879043156     -1.812E-06 4.078E-06 0.000E+00
 ETOT  5  -52.452879054763     -1.161E-08 3.456E-07 0.000E+00
 ETOT  6  -52.452879054846     -8.225E-11 5.422E-08 0.000E+00
 ETOT  7  -52.452879054846     -7.319E-13 2.027E-09 0.000E+00
 ETOT  8  -52.452879054846      2.274E-13 8.168E-10 0.000E+00
 ETOT  9  -52.452879054846     -2.345E-13 3.488E-11 0.000E+00
 ETOT 10  -52.452879054846      4.974E-14 1.356E-11 0.000E+00
 ETOT 11  -52.452879054846     -2.842E-14 6.326E-13 0.000E+00
 ETOT 12  -52.452879054846      1.421E-14 2.340E-13 0.000E+00
 ETOT 13  -52.452879054846     -1.421E-14 1.147E-14 0.000E+00
 ETOT 14  -52.452879054846      1.421E-14 4.092E-15 0.000E+00
 ETOT 15  -52.452879054846      0.000E+00 2.064E-16 0.000E+00
 ETOT 16  -52.452879054846      0.000E+00 7.196E-17 0.000E+00
 ETOT 17  -52.452879054846     -7.105E-15 3.768E-18 0.000E+00
 ETOT 18  -52.452879054846      7.105E-15 1.265E-18 0.000E+00
 ETOT 19  -52.452879054846     -7.105E-15 1.081E-19 0.000E+00
 ETOT 20  -52.452879054846      0.000E+00 2.844E-20 0.000E+00
 ETOT 21  -52.452879054846      0.000E+00 3.798E-21 0.000E+00
 ETOT 22  -52.452879054846     -1.421E-14 6.493E-22 0.000E+00
 ETOT 23  -52.452879054846      0.000E+00 9.345E-23 0.000E+00

 At SCF step   23   max residual=  9.34E-23 < tolwfr=  1.00E-22 =>converged.
================================================================================

 ----iterations are completed or convergence reached----

 Mean square residual over all n,k,spin=   58.186E-24; max=  93.449E-24
 dfpt_looppert : ek2=    7.5723765085E+01
          f-sum rule ratio=    1.4129145488E+00
 prteigrs : about to open file io_dir_new/hbn_t_1WF1_EIG
 Expectation of eigenvalue derivatives (hartree) for nkpt=   4  k points:
  (in case of degenerate eigenvalues, averaged derivative)
 kpt#   1, nband=  9, wtk=  0.25000, kpt=  0.0000  0.0000  0.0000 (reduced coord)
   0.00000    0.00000   -0.00000   -0.00000   -0.00000   -0.00000    0.00000    0.00000
  -0.00000
 prteigrs : prtvol=0 or 1, do not print more k-points.


 Eight components of 2nd-order total energy (hartree) are
 1,2,3: 0th-order hamiltonian combined with 1st-order wavefunctions
     kin0=   1.23472830E+02 eigvalue=  -3.63323230E+00  local=  -7.54939443E+01
 4,5,6: 1st-order hamiltonian combined with 1st and 0th-order wfs
     kin1=  -1.06991209E+02  Hartree=   0.00000000E+00     xc=   0.00000000E+00
 7,8,9: eventually, occupation + non-local contributions
    edocc=   6.97169352E+00     enl0=   1.13553234E+00   enl1=   2.08545127E+00
 1-9 gives the relaxation energy (to be shifted if some occ is /=2.0)
   erelax=  -5.24528791E+01
  No Ewald or frozen-wf contrib.: the relaxation energy is the total one
 2DEtotal=   -0.5245287905E+02 Ha. Also 2DEtotal=   -0.142731542652E+04 eV
    (  non-var. 2DEtotal :   -5.2452879055E+01 Ha)

--------------------------------------------------------------------------------
 Perturbation wavevector (in red.coord.)   0.000000  0.000000  0.000000
 Perturbation : derivative vs k along direction   2
 The set of symmetries contains only one element for this perturbation.
 symkpt : not enough symmetry to change the number of k points.

--------------------------------------------------------------------------------

--------------------------------------------------------------------------------

 Initialisation of the first-order wave-functions :
  ireadwf=   0

--- !BeginCycle
iteration_state: {dtset: 3, }
solver: {iscf: 7, nstep: 100, nline: 4, wfoptalg: 0, }
tolerances: {tolwfr: 1.00E-22, }
...

     iter   2DEtotal(Ha)        deltaE(Ha) residm    vres2
-ETOT  1  -52.369467897143     -5.237E+01 5.820E-01 0.000E+00
 ETOT  2  -52.452557709788     -8.309E-02 2.067E-03 0.000E+00
 ETOT  3  -52.452876932580     -3.192E-04 9.954E-05 0.000E+00
 ETOT  4  -52.452878744942     -1.812E-06 4.078E-06 0.000E+00
 ETOT  5  -52.452878756550     -1.161E-08 3.456E-07 0.000E+00
 ETOT  6  -52.452878756632     -8.210E-11 5.422E-08 0.000E+00
 ETOT  7  -52.452878756633     -6.679E-13 2.136E-09 0.000E+00
 ETOT  8  -52.452878756633     -4.974E-14 8.168E-10 0.000E+00
 ETOT  9  -52.452878756633     -1.350E-13 3.741E-11 0.000E+00
 ETOT 10  -52.452878756633      7.105E-15 1.356E-11 0.000E+00
 ETOT 11  -52.452878756633      7.105E-14 6.873E-13 0.000E+00
 ETOT 12  -52.452878756633      0.000E+00 2.352E-13 0.000E+00
 ETOT 13  -52.452878756633     -7.105E-15 1.263E-14 0.000E+00
 ETOT 14  -52.452878756633      0.000E+00 4.165E-15 0.000E+00
 ETOT 15  -52.452878756633      0.000E+00 2.307E-16 0.000E+00
 ETOT 16  -52.452878756633      7.105E-15 7.433E-17 0.000E+00
 ETOT 17  -52.452878756633     -7.105E-15 4.243E-18 0.000E+00
 ETOT 18  -52.452878756633      2.132E-14 1.337E-18 0.000E+00
 ETOT 19  -52.452878756633      0.000E+00 1.099E-19 0.000E+00
 ETOT 20  -52.452878756633     -2.842E-14 3.069E-20 0.000E+00
 ETOT 21  -52.452878756633      2.842E-14 4.262E-21 0.000E+00
 ETOT 22  -52.452878756633     -2.842E-14 7.211E-22 0.000E+00
 ETOT 23  -52.452878756633      2.842E-14 9.848E-23 0.000E+00

 At SCF step   23   max residual=  9.85E-23 < tolwfr=  1.00E-22 =>converged.
================================================================================

 ----iterations are completed or convergence reached----

 Mean square residual over all n,k,spin=   57.961E-24; max=  98.479E-24
 dfpt_looppert : ek2=    7.5723765085E+01
          f-sum rule ratio=    1.4129145227E+00
 prteigrs : about to open file io_dir_new/hbn_t_1WF1_EIG
 Expectation of eigenvalue derivatives (hartree) for nkpt=   4  k points:
  (in case of degenerate eigenvalues, averaged derivative)
 kpt#   1, nband=  9, wtk=  0.25000, kpt=  0.0000  0.0000  0.0000 (reduced coord)
   0.00000    0.00000   -0.00000   -0.00000    0.00000    0.00000   -0.00000   -0.00000
   0.00000
 prteigrs : prtvol=0 or 1, do not print more k-points.


 Eight components of 2nd-order total energy (hartree) are
 1,2,3: 0th-order hamiltonian combined with 1st-order wavefunctions
     kin0=   1.23472832E+02 eigvalue=  -3.63323268E+00  local=  -7.54939465E+01
 4,5,6: 1st-order hamiltonian combined with 1st and 0th-order wfs
     kin1=  -1.06991207E+02  Hartree=   0.00000000E+00     xc=   0.00000000E+00
 7,8,9: eventually, occupation + non-local contributions
    edocc=   6.97169356E+00     enl0=   1.13553223E+00   enl1=   2.08544989E+00
 1-9 gives the relaxation energy (to be shifted if some occ is /=2.0)
   erelax=  -5.24528788E+01
  No Ewald or frozen-wf contrib.: the relaxation energy is the total one
 2DEtotal=   -0.5245287876E+02 Ha. Also 2DEtotal=   -0.142731541841E+04 eV
    (  non-var. 2DEtotal :   -5.2452878757E+01 Ha)

--------------------------------------------------------------------------------
 Perturbation wavevector (in red.coord.)   0.000000  0.000000  0.000000
 Perturbation : derivative vs k along direction   3
 The set of symmetries contains only one element for this perturbation.
 symkpt : not enough symmetry to change the number of k points.

--------------------------------------------------------------------------------

--------------------------------------------------------------------------------

 Initialisation of the first-order wave-functions :
  ireadwf=   0

--- !BeginCycle
iteration_state: {dtset: 3, }
solver: {iscf: 7, nstep: 100, nline: 4, wfoptalg: 0, }
tolerances: {tolwfr: 1.00E-22, }
...

     iter   2DEtotal(Ha)        deltaE(Ha) residm    vres2
-ETOT  1  -4.3751168242763     -4.375E+00 9.507E-03 0.000E+00
 ETOT  2  -4.3785822008554     -3.465E-03 1.154E-04 0.000E+00
 ETOT  3  -4.3785953343808     -1.313E-05 3.968E-07 0.000E+00
 ETOT  4  -4.3785953933292     -5.895E-08 1.913E-09 0.000E+00
 ETOT  5  -4.3785953936070     -2.778E-10 2.629E-11 0.000E+00
 ETOT  6  -4.3785953936083     -1.326E-12 7.390E-14 0.000E+00
 ETOT  7  -4.3785953936083      4.441E-15 1.993E-15 0.000E+00
 ETOT  8  -4.3785953936083     -1.776E-15 5.612E-18 0.000E+00
 ETOT  9  -4.3785953936083     -1.776E-15 1.634E-19 0.000E+00
 ETOT 10  -4.3785953936083      2.665E-15 4.613E-22 0.000E+00
 ETOT 11  -4.3785953936083     -1.776E-15 8.960E-23 0.000E+00

 At SCF step   11   max residual=  8.96E-23 < tolwfr=  1.00E-22 =>converged.
================================================================================

 ----iterations are completed or convergence reached----

 Mean square residual over all n,k,spin=   48.492E-24; max=  89.603E-24
 dfpt_looppert : ek2=    8.5214229427E+00
          f-sum rule ratio=    1.0189695597E+00
 prteigrs : about to open file io_dir_new/hbn_t_1WF1_EIG
 Expectation of eigenvalue derivatives (hartree) for nkpt=   4  k points:
  (in case of degenerate eigenvalues, averaged derivative)
 kpt#   1, nband=  9, wtk=  0.25000, kpt=  0.0000  0.0000  0.0000 (reduced coord)
  -0.00000   -0.00000   -0.00000    0.00000   -0.00000    0.00000   -0.00000   -0.00000
  -0.00000
 prteigrs : prtvol=0 or 1, do not print more k-points.


 Eight components of 2nd-order total energy (hartree) are
 1,2,3: 0th-order hamiltonian combined with 1st-order wavefunctions
     kin0=   5.95317288E+00 eigvalue=  -7.34271914E-02  local=  -2.12416403E+00
 4,5,6: 1st-order hamiltonian combined with 1st and 0th-order wfs
     kin1=  -8.68307058E+00  Hartree=   0.00000000E+00     xc=   0.00000000E+00
 7,8,9: eventually, occupation + non-local contributions
    edocc=   6.74969205E-01     enl0=  -5.19554748E-02   enl1=  -7.41202034E-02
 1-9 gives the relaxation energy (to be shifted if some occ is /=2.0)
   erelax=  -4.37859539E+00
  No Ewald or frozen-wf contrib.: the relaxation energy is the total one
 2DEtotal=   -0.4378595394E+01 Ha. Also 2DEtotal=   -0.119147640023E+03 eV
    (  non-var. 2DEtotal :   -4.3785953936E+00 Ha)
================================================================================

 ---- first-order wavefunction calculations are completed ----


 Total localisation tensor (bohr^2) in cartesian coordinates
  WARNING : still subject to testing - especially symmetries.
      direction              matrix element
   alpha     beta       real part   imaginary part
     1        1       2.5840042992    0.0000000000
     1        2      -0.8951253613    0.0000000000
     1        3       0.0000000000    0.0000000000
     2        1      -0.8951253613    0.0000000000
     2        2       1.5504026049    0.0000000000
     2        3       0.0000000000    0.0000000000
     3        1       0.0000000000    0.0000000000
     3        2       0.0000000000    0.0000000000
     3        3       0.6590402463    0.0000000000

 respfn : d/dk was computed, but no 2DTE, so no DDB output.

================================================================================
== DATASET  4 ==================================================================
-   mpi_nproc: 1, omp_nthreads: 1 (-1 if OMP is not activated)


--- !DatasetInfo
iteration_state: {dtset: 4, }
dimensions: {natom: 4, nkpt: 4, mband: 9, nsppol: 1, nspinor: 1, nspden: 1, mpw: 1016, }
cutoff_energies: {ecut:  20.0, pawecutdg:  -1.0, }
electrons: {nelect:   1.60000000E+01, charge:   0.00000000E+00, occopt:   1.00000000E+00, tsmear:   1.00000000E-02, }
meta: {optdriver: 1, rfelfd: 3, rfphon: 1, }
...

 mkfilename : getwfk/=0, take file _WFK from output of DATASET   1.

 mkfilename : getddk/=0, take file _1WF from output of DATASET   3.

 Exchange-correlation functional for the present dataset will be:
  GGA: Perdew-Burke-Ernzerhof functional - ixc=11
 Citation for XC functional:
  J.P.Perdew, K.Burke, M.Ernzerhof, PRL 77, 3865 (1996)

 Real(R)+Recip(G) space primitive vectors, cartesian coordinates (Bohr,Bohr^-1):
 R(1)=  4.7163728  0.0000000  0.0000000  G(1)=  0.2120273  0.1224140  0.0000000
 R(2)= -2.3581864  4.0844987  0.0000000  G(2)=  0.0000000  0.2448281  0.0000000
 R(3)=  0.0000000  0.0000000 12.1758362  G(3)=  0.0000000  0.0000000  0.0821299
 Unit cell volume ucvol=  2.3455553E+02 bohr^3
 Angles (23,13,12)=  9.00000000E+01  9.00000000E+01  1.20000000E+02 degrees
 setup1 : take into account q-point for computing boxcut.

 getcut: wavevector=  0.0000  0.0000  0.0000  ngfft=  20  20  50
         ecut(hartree)=     20.000   => boxcut(ratio)=   2.03982
--------------------------------------------------------------------------------


 ==>  initialize data related to q vector <== 

 The list of irreducible perturbations for this q vector is:
    1)    idir= 1    ipert=   1
    2)    idir= 3    ipert=   1
    3)    idir= 1    ipert=   2
    4)    idir= 3    ipert=   2
    5)    idir= 1    ipert=   3
    6)    idir= 3    ipert=   3
    7)    idir= 1    ipert=   4
    8)    idir= 3    ipert=   4
    9)    idir= 1    ipert=   6
   10)    idir= 3    ipert=   6

================================================================================

 The perturbation idir=   2  ipert=   1 is
 symmetric of a previously calculated perturbation.
 So, its SCF calculation is not needed.


 The perturbation idir=   2  ipert=   2 is
 symmetric of a previously calculated perturbation.
 So, its SCF calculation is not needed.


 The perturbation idir=   2  ipert=   3 is
 symmetric of a previously calculated perturbation.
 So, its SCF calculation is not needed.


 The perturbation idir=   2  ipert=   4 is
 symmetric of a previously calculated perturbation.
 So, its SCF calculation is not needed.


 The perturbation idir=   2  ipert=   6 is
 symmetric of a previously calculated perturbation.
 So, its SCF calculation is not needed.


--------------------------------------------------------------------------------
 Perturbation wavevector (in red.coord.)   0.000000  0.000000  0.000000
 Perturbation : displacement of atom   1   along direction   1
 Found     2 symmetries that leave the perturbation invariant.
 symkpt : not enough symmetry to change the number of k points.

--------------------------------------------------------------------------------

--------------------------------------------------------------------------------

 Initialisation of the first-order wave-functions :
  ireadwf=   0

--- !BeginCycle
iteration_state: {dtset: 4, }
solver: {iscf: 7, nstep: 100, nline: 4, wfoptalg: 0, }
tolerances: {toldfe: 1.00E-10, }
...

     iter   2DEtotal(Ha)        deltaE(Ha) residm    vres2
-ETOT  1   11.059376892639     -1.443E+02 7.916E-01 4.630E+02
 ETOT  2   10.594353683159     -4.650E-01 1.377E-03 9.573E+00
 ETOT  3   10.581284981601     -1.307E-02 4.490E-04 4.273E-01
 ETOT  4   10.580862862421     -4.221E-04 1.367E-05 7.323E-03
 ETOT  5   10.580857829245     -5.033E-06 5.234E-06 4.661E-04
 ETOT  6   10.580857599357     -2.299E-07 1.892E-07 2.045E-04
 ETOT  7   10.580857328502     -2.709E-07 1.231E-07 8.401E-07
 ETOT  8   10.580857327369     -1.133E-09 4.871E-09 3.531E-08
 ETOT  9   10.580857327363     -6.054E-12 3.269E-09 1.597E-08
 ETOT 10   10.580857327359     -4.178E-12 1.267E-10 1.124E-09

 At SCF step   10, etot is converged : 
  for the second time, diff in etot=  4.178E-12 < toldfe=  1.000E-10
-open ddk wf file :io_dir_new/hbn_out_DS3_1WF13.nc
-open ddk wf file :io_dir_new/hbn_out_DS3_1WF14.nc
-open ddk wf file :io_dir_new/hbn_out_DS3_1WF15.nc
================================================================================

 ----iterations are completed or convergence reached----

 Mean square residual over all n,k,spin=   63.914E-13; max=  12.671E-11

 Thirteen components of 2nd-order total energy (hartree) are
 1,2,3: 0th-order hamiltonian combined with 1st-order wavefunctions
     kin0=   1.24102586E+02 eigvalue=   1.97863787E+00  local=  -6.26502018E+01
 4,5,6: 1st-order hamiltonian combined with 1st and 0th-order wfs
 loc psp =  -3.05110703E+01  Hartree=   6.05186820E+00     xc=  -2.76283894E+00
 note that "loc psp" includes a xc core correction that could be resolved
 7,8,9: eventually, occupation + non-local contributions
    edocc=   7.90098589E-01     enl0=   7.73166920E+01   enl1=  -2.59142614E+02
 1-9 gives the relaxation energy (to be shifted if some occ is /=2.0)
   erelax=  -1.44826842E+02
 10,11,12 Non-relaxation  contributions : frozen-wavefunctions and Ewald
 fr.local=  -2.08594204E+01 fr.nonlo=   1.40652117E+02  Ewald=   3.67536169E+01
 13,14 Frozen wf xc core corrections (1) and (2)
 frxc 1  =  -1.79947331E+00  frxc 2 =   6.60859003E-01
 Resulting in :
 2DEtotal=    0.1058085733E+02 Ha. Also 2DEtotal=    0.287919770303E+03 eV
    (2DErelax=   -1.4482684224E+02 Ha. 2DEnonrelax=    1.5540769957E+02 Ha)
    (  non-var. 2DEtotal :    1.0580857382E+01 Ha)


--------------------------------------------------------------------------------
 Perturbation wavevector (in red.coord.)   0.000000  0.000000  0.000000
 Perturbation : displacement of atom   1   along direction   3
 Found     6 symmetries that leave the perturbation invariant.
 symkpt : the number of k-points, thanks to the symmetries,
 is reduced to     2 .

--------------------------------------------------------------------------------

--------------------------------------------------------------------------------

 Initialisation of the first-order wave-functions :
  ireadwf=   0

--- !BeginCycle
iteration_state: {dtset: 4, }
solver: {iscf: 7, nstep: 100, nline: 4, wfoptalg: 0, }
tolerances: {toldfe: 1.00E-10, }
...

     iter   2DEtotal(Ha)        deltaE(Ha) residm    vres2
-ETOT  1   25.147403280805     -6.829E+02 1.958E+00 2.962E+03
 ETOT  2   24.342135928043     -8.053E-01 8.249E-03 8.924E+01
 ETOT  3   24.325171161234     -1.696E-02 3.570E-04 3.136E+00
 ETOT  4   24.324364020776     -8.071E-04 3.236E-05 1.429E-01
 ETOT  5   24.324328306189     -3.571E-05 3.459E-07 6.889E-03
 ETOT  6   24.324326744685     -1.562E-06 3.575E-08 4.602E-05
 ETOT  7   24.324326719589     -2.510E-08 8.323E-10 4.587E-06
 ETOT  8   24.324326718412     -1.177E-09 1.427E-11 1.525E-07
 ETOT  9   24.324326718380     -3.195E-11 2.388E-12 6.419E-09
 ETOT 10   24.324326718378     -2.728E-12 8.660E-14 1.822E-10

 At SCF step   10, etot is converged : 
  for the second time, diff in etot=  2.728E-12 < toldfe=  1.000E-10
-open ddk wf file :io_dir_new/hbn_out_DS3_1WF13.nc
-open ddk wf file :io_dir_new/hbn_out_DS3_1WF14.nc
-open ddk wf file :io_dir_new/hbn_out_DS3_1WF15.nc
================================================================================

 ----iterations are completed or convergence reached----

 Mean square residual over all n,k,spin=   58.795E-16; max=  86.602E-15

 Thirteen components of 2nd-order total energy (hartree) are
 1,2,3: 0th-order hamiltonian combined with 1st-order wavefunctions
     kin0=   6.34582415E+02 eigvalue=   6.57227651E+00  local=  -2.36598569E+02
 4,5,6: 1st-order hamiltonian combined with 1st and 0th-order wfs
 loc psp =  -5.11180130E+02  Hartree=   1.30826430E+02     xc=  -2.73629862E+01
 note that "loc psp" includes a xc core correction that could be resolved
 7,8,9: eventually, occupation + non-local contributions
    edocc=   7.82261688E+00     enl0=   1.67898521E+02   enl1=  -8.56301276E+02
 1-9 gives the relaxation energy (to be shifted if some occ is /=2.0)
   erelax=  -6.83740701E+02
 10,11,12 Non-relaxation  contributions : frozen-wavefunctions and Ewald
 fr.local=   4.59613827E+02 fr.nonlo=   4.26401380E+02  Ewald=  -1.80143744E+02
 13,14 Frozen wf xc core corrections (1) and (2)
 frxc 1  =  -1.45745175E+01  frxc 2 =   1.67680818E+01
 Resulting in :
 2DEtotal=    0.2432432672E+02 Ha. Also 2DEtotal=    0.661898591470E+03 eV
    (2DErelax=   -6.8374070109E+02 Ha. 2DEnonrelax=    7.0806502780E+02 Ha)
    (  non-var. 2DEtotal :    2.4324325003E+01 Ha)


--------------------------------------------------------------------------------
 Perturbation wavevector (in red.coord.)   0.000000  0.000000  0.000000
 Perturbation : displacement of atom   2   along direction   1
 Found     2 symmetries that leave the perturbation invariant.
 symkpt : not enough symmetry to change the number of k points.

--------------------------------------------------------------------------------

--------------------------------------------------------------------------------

 Initialisation of the first-order wave-functions :
  ireadwf=   0

--- !BeginCycle
iteration_state: {dtset: 4, }
solver: {iscf: 7, nstep: 100, nline: 4, wfoptalg: 0, }
tolerances: {toldfe: 1.00E-10, }
...

     iter   2DEtotal(Ha)        deltaE(Ha) residm    vres2
-ETOT  1   12.771708290084     -7.408E+02 1.115E+00 1.943E+03
 ETOT  2   10.594538675480     -2.177E+00 3.381E-02 6.423E+01
 ETOT  3   10.505063405093     -8.948E-02 5.177E-04 1.461E+01
 ETOT  4   10.488711911749     -1.635E-02 8.514E-05 1.648E+00
 ETOT  5   10.486587661382     -2.124E-03 7.225E-06 2.100E-03
 ETOT  6   10.486582592661     -5.069E-06 1.843E-07 9.561E-05
 ETOT  7   10.486582523700     -6.896E-08 9.233E-08 8.495E-05
 ETOT  8   10.486582465276     -5.842E-08 5.182E-09 5.076E-06
 ETOT  9   10.486582462243     -3.033E-09 2.676E-09 6.820E-08
 ETOT 10   10.486582462180     -6.321E-11 1.231E-10 2.848E-08
 ETOT 11   10.486582462173     -6.480E-12 3.115E-11 1.206E-09

 At SCF step   11, etot is converged : 
  for the second time, diff in etot=  6.480E-12 < toldfe=  1.000E-10
-open ddk wf file :io_dir_new/hbn_out_DS3_1WF13.nc
-open ddk wf file :io_dir_new/hbn_out_DS3_1WF14.nc
-open ddk wf file :io_dir_new/hbn_out_DS3_1WF15.nc
================================================================================

 ----iterations are completed or convergence reached----

 Mean square residual over all n,k,spin=   13.062E-13; max=  31.155E-12

 Thirteen components of 2nd-order total energy (hartree) are
 1,2,3: 0th-order hamiltonian combined with 1st-order wavefunctions
     kin0=   8.10892351E+02 eigvalue=   8.61333773E-01  local=  -3.59211481E+02
 4,5,6: 1st-order hamiltonian combined with 1st and 0th-order wfs
 loc psp =  -3.57236816E+02  Hartree=   9.40266305E+01     xc=  -3.07071889E+01
 note that "loc psp" includes a xc core correction that could be resolved
 7,8,9: eventually, occupation + non-local contributions
    edocc=   3.80369032E+00     enl0=   2.23405364E+02   enl1=  -1.12890458E+03
 1-9 gives the relaxation energy (to be shifted if some occ is /=2.0)
   erelax=  -7.43070700E+02
 10,11,12 Non-relaxation  contributions : frozen-wavefunctions and Ewald
 fr.local=   1.53718143E+02 fr.nonlo=   5.70585010E+02  Ewald=   3.67993500E+01
 13,14 Frozen wf xc core corrections (1) and (2)
 frxc 1  =  -2.72588614E+01  frxc 2 =   1.97136416E+01
 Resulting in :
 2DEtotal=    0.1048658246E+02 Ha. Also 2DEtotal=    0.285354420758E+03 eV
    (2DErelax=   -7.4307070001E+02 Ha. 2DEnonrelax=    7.5355728247E+02 Ha)
    (  non-var. 2DEtotal :    1.0486582376E+01 Ha)


--------------------------------------------------------------------------------
 Perturbation wavevector (in red.coord.)   0.000000  0.000000  0.000000
 Perturbation : displacement of atom   2   along direction   3
 Found     6 symmetries that leave the perturbation invariant.
 symkpt : the number of k-points, thanks to the symmetries,
 is reduced to     2 .

--------------------------------------------------------------------------------

--------------------------------------------------------------------------------

 Initialisation of the first-order wave-functions :
  ireadwf=   0

--- !BeginCycle
iteration_state: {dtset: 4, }
solver: {iscf: 7, nstep: 100, nline: 4, wfoptalg: 0, }
tolerances: {toldfe: 1.00E-10, }
...

     iter   2DEtotal(Ha)        deltaE(Ha) residm    vres2
-ETOT  1   45.206479307604     -5.239E+03 4.032E+00 8.514E+04
 ETOT  2   26.646253351717     -1.856E+01 1.858E-01 2.701E+03
 ETOT  3   25.792271628469     -8.540E-01 5.309E-03 2.763E+02
 ETOT  4   25.735464525397     -5.681E-02 1.145E-03 3.993E+00
 ETOT  5   25.734865681814     -5.988E-04 1.019E-04 8.634E-02
 ETOT  6   25.734841130130     -2.455E-05 1.242E-06 1.130E-03
 ETOT  7   25.734840745963     -3.842E-07 1.235E-08 4.691E-05
 ETOT  8   25.734840733769     -1.219E-08 8.926E-10 1.911E-07
 ETOT  9   25.734840733572     -1.965E-10 8.000E-12 2.454E-09
 ETOT 10   25.734840733587      1.455E-11 7.292E-14 7.448E-11
 ETOT 11   25.734840733611      2.365E-11 7.429E-15 5.759E-12

 At SCF step   11, etot is converged : 
  for the second time, diff in etot=  2.365E-11 < toldfe=  1.000E-10
-open ddk wf file :io_dir_new/hbn_out_DS3_1WF13.nc
-open ddk wf file :io_dir_new/hbn_out_DS3_1WF14.nc
-open ddk wf file :io_dir_new/hbn_out_DS3_1WF15.nc
================================================================================

 ----iterations are completed or convergence reached----

 Mean square residual over all n,k,spin=   50.046E-17; max=  74.291E-16

 Thirteen components of 2nd-order total energy (hartree) are
 1,2,3: 0th-order hamiltonian combined with 1st-order wavefunctions
     kin0=   5.13740336E+03 eigvalue=  -1.70530770E+01  local=  -2.00091832E+03
 4,5,6: 1st-order hamiltonian combined with 1st and 0th-order wfs
 loc psp =  -3.14251794E+03  Hartree=   9.77958811E+02     xc=  -2.03892956E+02
 note that "loc psp" includes a xc core correction that could be resolved
 7,8,9: eventually, occupation + non-local contributions
    edocc=   1.58922599E+01     enl0=   1.34881920E+03   enl1=  -7.37390066E+03
 1-9 gives the relaxation energy (to be shifted if some occ is /=2.0)
   erelax=  -5.25820934E+03
 10,11,12 Non-relaxation  contributions : frozen-wavefunctions and Ewald
 fr.local=   1.57518160E+03 fr.nonlo=   3.81080131E+03  Ewald=  -5.36720076E+01
 13,14 Frozen wf xc core corrections (1) and (2)
 frxc 1  =  -1.83257982E+02  frxc 2 =   1.34891263E+02
 Resulting in :
 2DEtotal=    0.2573484073E+02 Ha. Also 2DEtotal=    0.700280629778E+03 eV
    (2DErelax=   -5.2582093369E+03 Ha. 2DEnonrelax=    5.2839441777E+03 Ha)
    (  non-var. 2DEtotal :    2.5734874533E+01 Ha)


--------------------------------------------------------------------------------
 Perturbation wavevector (in red.coord.)   0.000000  0.000000  0.000000
 Perturbation : displacement of atom   3   along direction   1
 Found     2 symmetries that leave the perturbation invariant.
 symkpt : not enough symmetry to change the number of k points.

--------------------------------------------------------------------------------

--------------------------------------------------------------------------------

 Initialisation of the first-order wave-functions :
  ireadwf=   0

--- !BeginCycle
iteration_state: {dtset: 4, }
solver: {iscf: 7, nstep: 100, nline: 4, wfoptalg: 0, }
tolerances: {toldfe: 1.00E-10, }
...

     iter   2DEtotal(Ha)        deltaE(Ha) residm    vres2
-ETOT  1   11.059378592329     -1.443E+02 7.916E-01 4.630E+02
 ETOT  2   10.594355574714     -4.650E-01 1.377E-03 9.573E+00
 ETOT  3   10.581286873658     -1.307E-02 4.487E-04 4.273E-01
 ETOT  4   10.580864754520     -4.221E-04 1.384E-05 7.323E-03
 ETOT  5   10.580859724035     -5.030E-06 5.215E-06 4.679E-04
 ETOT  6   10.580859493407     -2.306E-07 1.885E-07 2.061E-04
 ETOT  7   10.580859220682     -2.727E-07 1.228E-07 8.197E-07
 ETOT  8   10.580859219576     -1.106E-09 4.850E-09 3.351E-08
 ETOT  9   10.580859219570     -6.082E-12 3.255E-09 1.566E-08
 ETOT 10   10.580859219566     -4.547E-12 1.254E-10 1.078E-09

 At SCF step   10, etot is converged : 
  for the second time, diff in etot=  4.547E-12 < toldfe=  1.000E-10
-open ddk wf file :io_dir_new/hbn_out_DS3_1WF13.nc
-open ddk wf file :io_dir_new/hbn_out_DS3_1WF14.nc
-open ddk wf file :io_dir_new/hbn_out_DS3_1WF15.nc
================================================================================

 ----iterations are completed or convergence reached----

 Mean square residual over all n,k,spin=   65.158E-13; max=  12.543E-11

 Thirteen components of 2nd-order total energy (hartree) are
 1,2,3: 0th-order hamiltonian combined with 1st-order wavefunctions
     kin0=   1.24102573E+02 eigvalue=   1.97863985E+00  local=  -6.26501910E+01
 4,5,6: 1st-order hamiltonian combined with 1st and 0th-order wfs
 loc psp =  -3.05110698E+01  Hartree=   6.05186751E+00     xc=  -2.76283867E+00
 note that "loc psp" includes a xc core correction that could be resolved
 7,8,9: eventually, occupation + non-local contributions
    edocc=   7.90098907E-01     enl0=   7.73166865E+01   enl1=  -2.59142602E+02
 1-9 gives the relaxation energy (to be shifted if some occ is /=2.0)
   erelax=  -1.44826836E+02
 10,11,12 Non-relaxation  contributions : frozen-wavefunctions and Ewald
 fr.local=  -2.08594226E+01 fr.nonlo=   1.40652115E+02  Ewald=   3.67536169E+01
 13,14 Frozen wf xc core corrections (1) and (2)
 frxc 1  =  -1.79947335E+00  frxc 2 =   6.60859015E-01
 Resulting in :
 2DEtotal=    0.1058085922E+02 Ha. Also 2DEtotal=    0.287919821792E+03 eV
    (2DErelax=   -1.4482683605E+02 Ha. 2DEnonrelax=    1.5540769527E+02 Ha)
    (  non-var. 2DEtotal :    1.0580859276E+01 Ha)


--------------------------------------------------------------------------------
 Perturbation wavevector (in red.coord.)   0.000000  0.000000  0.000000
 Perturbation : displacement of atom   3   along direction   3
 Found     6 symmetries that leave the perturbation invariant.
 symkpt : the number of k-points, thanks to the symmetries,
 is reduced to     2 .

--------------------------------------------------------------------------------

--------------------------------------------------------------------------------

 Initialisation of the first-order wave-functions :
  ireadwf=   0

--- !BeginCycle
iteration_state: {dtset: 4, }
solver: {iscf: 7, nstep: 100, nline: 4, wfoptalg: 0, }
tolerances: {toldfe: 1.00E-10, }
...

     iter   2DEtotal(Ha)        deltaE(Ha) residm    vres2
-ETOT  1   25.147431538852     -6.829E+02 1.958E+00 2.962E+03
 ETOT  2   24.342163754647     -8.053E-01 8.249E-03 8.924E+01
 ETOT  3   24.325199049907     -1.696E-02 3.570E-04 3.136E+00
 ETOT  4   24.324391932435     -8.071E-04 3.179E-05 1.429E-01
 ETOT  5   24.324356219603     -3.571E-05 3.459E-07 6.889E-03
 ETOT  6   24.324354658136     -1.561E-06 3.610E-08 4.602E-05
 ETOT  7   24.324354633039     -2.510E-08 8.458E-10 4.581E-06
 ETOT  8   24.324354631859     -1.180E-09 1.329E-11 1.536E-07
 ETOT  9   24.324354631829     -3.035E-11 2.704E-12 6.459E-09
 ETOT 10   24.324354631828     -6.821E-13 8.055E-14 1.810E-10

 At SCF step   10, etot is converged : 
  for the second time, diff in etot=  6.821E-13 < toldfe=  1.000E-10
-open ddk wf file :io_dir_new/hbn_out_DS3_1WF13.nc
-open ddk wf file :io_dir_new/hbn_out_DS3_1WF14.nc
-open ddk wf file :io_dir_new/hbn_out_DS3_1WF15.nc
================================================================================

 ----iterations are completed or convergence reached----

 Mean square residual over all n,k,spin=   55.329E-16; max=  80.548E-15

 Thirteen components of 2nd-order total energy (hartree) are
 1,2,3: 0th-order hamiltonian combined with 1st-order wavefunctions
     kin0=   6.34582347E+02 eigvalue=   6.57228610E+00  local=  -2.36598533E+02
 4,5,6: 1st-order hamiltonian combined with 1st and 0th-order wfs
 loc psp =  -5.11180101E+02  Hartree=   1.30826416E+02     xc=  -2.73629834E+01
 note that "loc psp" includes a xc core correction that could be resolved
 7,8,9: eventually, occupation + non-local contributions
    edocc=   7.82261900E+00     enl0=   1.67898494E+02   enl1=  -8.56301185E+02
 1-9 gives the relaxation energy (to be shifted if some occ is /=2.0)
   erelax=  -6.83740641E+02
 10,11,12 Non-relaxation  contributions : frozen-wavefunctions and Ewald
 fr.local=   4.59613838E+02 fr.nonlo=   4.26401337E+02  Ewald=  -1.80143744E+02
 13,14 Frozen wf xc core corrections (1) and (2)
 frxc 1  =  -1.45745181E+01  frxc 2 =   1.67680829E+01
 Resulting in :
 2DEtotal=    0.2432435463E+02 Ha. Also 2DEtotal=    0.661899351033E+03 eV
    (2DErelax=   -6.8374064149E+02 Ha. 2DEnonrelax=    7.0806499613E+02 Ha)
    (  non-var. 2DEtotal :    2.4324352927E+01 Ha)


--------------------------------------------------------------------------------
 Perturbation wavevector (in red.coord.)   0.000000  0.000000  0.000000
 Perturbation : displacement of atom   4   along direction   1
 Found     2 symmetries that leave the perturbation invariant.
 symkpt : not enough symmetry to change the number of k points.

--------------------------------------------------------------------------------

--------------------------------------------------------------------------------

 Initialisation of the first-order wave-functions :
  ireadwf=   0

--- !BeginCycle
iteration_state: {dtset: 4, }
solver: {iscf: 7, nstep: 100, nline: 4, wfoptalg: 0, }
tolerances: {toldfe: 1.00E-10, }
...

     iter   2DEtotal(Ha)        deltaE(Ha) residm    vres2
-ETOT  1   12.771743172119     -7.408E+02 1.114E+00 1.943E+03
 ETOT  2   10.594576217589     -2.177E+00 3.380E-02 6.423E+01
 ETOT  3   10.505101049031     -8.948E-02 5.176E-04 1.461E+01
 ETOT  4   10.488749612066     -1.635E-02 8.515E-05 1.648E+00
 ETOT  5   10.486625711894     -2.124E-03 7.598E-06 2.037E-03
 ETOT  6   10.486620284313     -5.428E-06 1.612E-07 9.723E-05
 ETOT  7   10.486620221377     -6.294E-08 9.604E-08 1.008E-04
 ETOT  8   10.486620174025     -4.735E-08 5.825E-09 9.063E-06
 ETOT  9   10.486620168606     -5.420E-09 3.341E-09 1.642E-07
 ETOT 10   10.486620168456     -1.502E-10 1.349E-10 5.292E-08
 ETOT 11   10.486620168438     -1.785E-11 2.939E-11 1.534E-09
 ETOT 12   10.486620168438      7.958E-13 2.101E-12 1.348E-11

 At SCF step   12, etot is converged : 
  for the second time, diff in etot=  7.958E-13 < toldfe=  1.000E-10
-open ddk wf file :io_dir_new/hbn_out_DS3_1WF13.nc
-open ddk wf file :io_dir_new/hbn_out_DS3_1WF14.nc
-open ddk wf file :io_dir_new/hbn_out_DS3_1WF15.nc
================================================================================

 ----iterations are completed or convergence reached----

 Mean square residual over all n,k,spin=   94.811E-15; max=  21.011E-13

 Thirteen components of 2nd-order total energy (hartree) are
 1,2,3: 0th-order hamiltonian combined with 1st-order wavefunctions
     kin0=   8.10892302E+02 eigvalue=   8.61346021E-01  local=  -3.59211423E+02
 4,5,6: 1st-order hamiltonian combined with 1st and 0th-order wfs
 loc psp =  -3.57236817E+02  Hartree=   9.40266251E+01     xc=  -3.07071868E+01
 note that "loc psp" includes a xc core correction that could be resolved
 7,8,9: eventually, occupation + non-local contributions
    edocc=   3.80369215E+00     enl0=   2.23405356E+02   enl1=  -1.12890461E+03
 1-9 gives the relaxation energy (to be shifted if some occ is /=2.0)
   erelax=  -7.43070712E+02
 10,11,12 Non-relaxation  contributions : frozen-wavefunctions and Ewald
 fr.local=   1.53718156E+02 fr.nonlo=   5.70585046E+02  Ewald=   3.67993500E+01
 13,14 Frozen wf xc core corrections (1) and (2)
 frxc 1  =  -2.72588606E+01  frxc 2 =   1.97136409E+01
 Resulting in :
 2DEtotal=    0.1048662017E+02 Ha. Also 2DEtotal=    0.285355446797E+03 eV
    (2DErelax=   -7.4307071239E+02 Ha. 2DEnonrelax=    7.5355733256E+02 Ha)
    (  non-var. 2DEtotal :    1.0486620204E+01 Ha)


--------------------------------------------------------------------------------
 Perturbation wavevector (in red.coord.)   0.000000  0.000000  0.000000
 Perturbation : displacement of atom   4   along direction   3
 Found     6 symmetries that leave the perturbation invariant.
 symkpt : the number of k-points, thanks to the symmetries,
 is reduced to     2 .

--------------------------------------------------------------------------------

--------------------------------------------------------------------------------

 Initialisation of the first-order wave-functions :
  ireadwf=   0

--- !BeginCycle
iteration_state: {dtset: 4, }
solver: {iscf: 7, nstep: 100, nline: 4, wfoptalg: 0, }
tolerances: {toldfe: 1.00E-10, }
...

     iter   2DEtotal(Ha)        deltaE(Ha) residm    vres2
-ETOT  1   45.206709287328     -5.239E+03 4.031E+00 8.514E+04
 ETOT  2   26.646488535241     -1.856E+01 1.858E-01 2.701E+03
 ETOT  3   25.792506784133     -8.540E-01 5.311E-03 2.763E+02
 ETOT  4   25.735699694849     -5.681E-02 9.686E-04 3.993E+00
 ETOT  5   25.735100850585     -5.988E-04 1.057E-04 8.634E-02
 ETOT  6   25.735076298713     -2.455E-05 1.313E-06 1.130E-03
 ETOT  7   25.735075914571     -3.841E-07 1.199E-08 4.692E-05
 ETOT  8   25.735075902317     -1.225E-08 9.214E-10 1.910E-07
 ETOT  9   25.735075902221     -9.641E-11 8.233E-12 2.458E-09
 ETOT 10   25.735075902146     -7.458E-11 8.334E-14 7.494E-11

 At SCF step   10, etot is converged : 
  for the second time, diff in etot=  7.458E-11 < toldfe=  1.000E-10
-open ddk wf file :io_dir_new/hbn_out_DS3_1WF13.nc
-open ddk wf file :io_dir_new/hbn_out_DS3_1WF14.nc
-open ddk wf file :io_dir_new/hbn_out_DS3_1WF15.nc
================================================================================

 ----iterations are completed or convergence reached----

 Mean square residual over all n,k,spin=   78.985E-16; max=  83.337E-15

 Thirteen components of 2nd-order total energy (hartree) are
 1,2,3: 0th-order hamiltonian combined with 1st-order wavefunctions
     kin0=   5.13740340E+03 eigvalue=  -1.70530251E+01  local=  -2.00091822E+03
 4,5,6: 1st-order hamiltonian combined with 1st and 0th-order wfs
 loc psp =  -3.14251791E+03  Hartree=   9.77958783E+02     xc=  -2.03892951E+02
 note that "loc psp" includes a xc core correction that could be resolved
 7,8,9: eventually, occupation + non-local contributions
    edocc=   1.58922731E+01     enl0=   1.34881929E+03   enl1=  -7.37390125E+03
 1-9 gives the relaxation energy (to be shifted if some occ is /=2.0)
   erelax=  -5.25820961E+03
 10,11,12 Non-relaxation  contributions : frozen-wavefunctions and Ewald
 fr.local=   1.57518167E+03 fr.nonlo=   3.81080175E+03  Ewald=  -5.36720076E+01
 13,14 Frozen wf xc core corrections (1) and (2)
 frxc 1  =  -1.83257975E+02  frxc 2 =   1.34891252E+02
 Resulting in :
 2DEtotal=    0.2573507590E+02 Ha. Also 2DEtotal=    0.700287029040E+03 eV
    (2DErelax=   -5.2582096109E+03 Ha. 2DEnonrelax=    5.2839446868E+03 Ha)
    (  non-var. 2DEtotal :    2.5735108582E+01 Ha)


--------------------------------------------------------------------------------
 Perturbation wavevector (in red.coord.)   0.000000  0.000000  0.000000
 Perturbation : homogeneous electric field along direction   1
 The set of symmetries contains only one element for this perturbation.
 symkpt : not enough symmetry to change the number of k points.

--------------------------------------------------------------------------------

--------------------------------------------------------------------------------

 Initialisation of the first-order wave-functions :
  ireadwf=   0
- dfpt_looppert: read the DDK wavefunctions from file: io_dir_new/hbn_out_DS3_1WF13.nc

--- !BeginCycle
iteration_state: {dtset: 4, }
solver: {iscf: 7, nstep: 100, nline: 4, wfoptalg: 0, }
tolerances: {toldfe: 1.00E-10, }
...

     iter   2DEtotal(Ha)        deltaE(Ha) residm    vres2
-ETOT  1  -362.18209918904     -3.622E+02 1.431E+01 8.310E+03
 ETOT  2  -366.50438064075     -4.322E+00 7.047E-02 3.251E+02
 ETOT  3  -366.72933411435     -2.250E-01 1.190E-03 1.727E+01
 ETOT  4  -366.74256518747     -1.323E-02 1.026E-04 1.733E+00
 ETOT  5  -366.74352078244     -9.556E-04 2.187E-05 5.469E-01
 ETOT  6  -366.74406780276     -5.470E-04 3.265E-06 1.895E-03
 ETOT  7  -366.74407025300     -2.450E-06 4.687E-07 1.662E-05
 ETOT  8  -366.74407026611     -1.310E-08 1.972E-09 1.048E-06
 ETOT  9  -366.74407026667     -5.643E-10 1.566E-09 1.059E-07
 ETOT 10  -366.74407026670     -3.092E-11 1.886E-11 4.030E-09
 ETOT 11  -366.74407026670     -2.444E-12 7.054E-12 9.189E-11

 At SCF step   11, etot is converged : 
  for the second time, diff in etot=  2.444E-12 < toldfe=  1.000E-10
-open ddk wf file :io_dir_new/hbn_out_DS3_1WF13.nc
-open ddk wf file :io_dir_new/hbn_out_DS3_1WF14.nc
-open ddk wf file :io_dir_new/hbn_out_DS3_1WF15.nc
================================================================================

 ----iterations are completed or convergence reached----

 Mean square residual over all n,k,spin=   23.539E-14; max=  70.536E-13

 Seven components of 2nd-order total energy (hartree) are
 1,2,3: 0th-order hamiltonian combined with 1st-order wavefunctions
     kin0=   8.57322614E+02 eigvalue=  -5.68926141E+01  local=  -5.33105550E+02
 4,5,6: 1st-order hamiltonian combined with 1st and 0th-order wfs
    dotwf=  -7.33488140E+02  Hartree=   3.34124889E+01     xc=  -2.95322374E+01
 7,8,9: eventually, occupation + non-local contributions
    edocc=   1.61604589E+02     enl0=  -6.60652203E+01   enl1=   0.00000000E+00
 1-9 gives the relaxation energy (to be shifted if some occ is /=2.0)
   erelax=  -3.66744070E+02
  No Ewald or frozen-wf contrib.: the relaxation energy is the total one
 2DEtotal=   -0.3667440703E+03 Ha. Also 2DEtotal=   -0.997961367441E+04 eV
    (  non-var. 2DEtotal :   -3.6674407023E+02 Ha)

--------------------------------------------------------------------------------
 Perturbation wavevector (in red.coord.)   0.000000  0.000000  0.000000
 Perturbation : homogeneous electric field along direction   3
 The set of symmetries contains only one element for this perturbation.
 symkpt : not enough symmetry to change the number of k points.

--------------------------------------------------------------------------------

--------------------------------------------------------------------------------

 Initialisation of the first-order wave-functions :
  ireadwf=   0
- dfpt_looppert: read the DDK wavefunctions from file: io_dir_new/hbn_out_DS3_1WF15.nc

--- !BeginCycle
iteration_state: {dtset: 4, }
solver: {iscf: 7, nstep: 100, nline: 4, wfoptalg: 0, }
tolerances: {toldfe: 1.00E-10, }
...

     iter   2DEtotal(Ha)        deltaE(Ha) residm    vres2
-ETOT  1  -7.9674162191773     -7.967E+00 1.423E-01 1.935E+03
 ETOT  2  -8.8936690571775     -9.263E-01 7.047E-03 3.951E+01
 ETOT  3  -8.9215087179919     -2.784E-02 8.202E-05 6.176E-01
 ETOT  4  -8.9220501286310     -5.414E-04 3.562E-06 2.502E-02
 ETOT  5  -8.9220668710839     -1.674E-05 4.662E-08 2.673E-04
 ETOT  6  -8.9220669714638     -1.004E-07 6.331E-10 4.453E-07
 ETOT  7  -8.9220669717209     -2.571E-10 1.363E-12 1.242E-08
 ETOT  8  -8.9220669717247     -3.757E-12 1.687E-14 1.006E-10
 ETOT  9  -8.9220669717247     -1.954E-14 1.174E-15 1.208E-12

 At SCF step    9, etot is converged : 
  for the second time, diff in etot=  1.954E-14 < toldfe=  1.000E-10
-open ddk wf file :io_dir_new/hbn_out_DS3_1WF13.nc
-open ddk wf file :io_dir_new/hbn_out_DS3_1WF14.nc
-open ddk wf file :io_dir_new/hbn_out_DS3_1WF15.nc
================================================================================

 ----iterations are completed or convergence reached----

 Mean square residual over all n,k,spin=   82.567E-18; max=  11.739E-16

 Seven components of 2nd-order total energy (hartree) are
 1,2,3: 0th-order hamiltonian combined with 1st-order wavefunctions
     kin0=   7.48329537E+00 eigvalue=  -7.34529427E-01  local=  -2.61066933E+00
 4,5,6: 1st-order hamiltonian combined with 1st and 0th-order wfs
    dotwf=  -1.78441339E+01  Hartree=   1.92802852E+00     xc=  -1.13309394E+00
 7,8,9: eventually, occupation + non-local contributions
    edocc=   3.91098335E+00     enl0=   7.80524198E-02   enl1=   0.00000000E+00
 1-9 gives the relaxation energy (to be shifted if some occ is /=2.0)
   erelax=  -8.92206697E+00
  No Ewald or frozen-wf contrib.: the relaxation energy is the total one
 2DEtotal=   -0.8922066972E+01 Ha. Also 2DEtotal=   -0.242781789192E+03 eV
    (  non-var. 2DEtotal :   -8.9220669673E+00 Ha)
================================================================================

 ---- first-order wavefunction calculations are completed ----


 ==> Compute Derivative Database <==
  
  2nd-order matrix (non-cartesian coordinates, masses not included,
   asr not included )
     j1       j2             matrix element
  dir pert dir pert     real part     imaginary part
  
   1    1   1    1        10.5808634808         0.0000000000
   1    1   2    1        -5.2904317404         0.0000000000
   1    1   3    1        -0.0000000000         0.0000000000
   1    1   1    2       -10.4894742767         0.0000000000
   1    1   2    2         5.2447371384        -0.0000000000
   1    1   3    2         0.0000000000        -0.0000000000
   1    1   1    3         0.1280764079        -0.0000000000
   1    1   2    3        -0.0640382039        -0.0000000000
   1    1   3    3         0.0000000000        -0.0000000000
   1    1   1    4        -0.2198440780         0.0000000000
   1    1   2    4         0.1099220390         0.0000000000
   1    1   3    4        -0.0000000000         0.0000000000
   1    1   1    6        -2.9593991790         0.0000000000
   1    1   2    6         0.0000000000         0.0000000000
   1    1   3    6         0.0000000000         0.0000000000
  
   2    1   1    1        -5.2904317404         0.0000000000
   2    1   2    1        10.5808634807         0.0000000000
   2    1   3    1         0.0000000000         0.0000000000
   2    1   1    2         5.2447371384        -0.0000000000
   2    1   2    2       -10.4894742767         0.0000000000
   2    1   3    2        -0.0000000000         0.0000000000
   2    1   1    3        -0.0640382039        -0.0000000000
   2    1   2    3         0.1280764079         0.0000000000
   2    1   3    3        -0.0000000000         0.0000000000
   2    1   1    4         0.1099220390         0.0000000000
   2    1   2    4        -0.2198440780         0.0000000000
   2    1   3    4         0.0000000000         0.0000000000
   2    1   1    6        -0.0000000000         0.0000000000
   2    1   2    6        -2.9593991790         0.0000000000
   2    1   3    6         0.0000000000         0.0000000000
  
   3    1   1    1        -0.0000000000         0.0000000000
   3    1   2    1         0.0000000000         0.0000000000
   3    1   3    1        24.3243250031         0.0000000000
   3    1   1    2         0.0000000000        -0.0000000000
   3    1   2    2        -0.0000000000         0.0000000000
   3    1   3    2       -24.5384421721        -0.0000000000
   3    1   1    3         0.0000000000        -0.0000000000
   3    1   2    3        -0.0000000000         0.0000000000
   3    1   3    3        -1.7349681599        -0.0000000000
   3    1   1    4        -0.0000000000         0.0000000000
   3    1   2    4         0.0000000000         0.0000000000
[...]
  
   1    4   1    1        -0.0117527108        -0.0000000213
   1    4   2    1        -0.0143600862         0.0000000058
   1    4   3    1         0.0000000000         0.0000000000
   1    4   1    2         0.0081456618        -0.0000001038
   1    4   2    2        -0.0096749427        -0.0000000456
   1    4   3    2         0.0000000000         0.0000000000
   1    4   1    3         0.0726156277         0.0000040743
   1    4   2    3        -0.1023808338         0.0000022607
   1    4   3    3         0.0000000000        -0.0000000000
   1    4   1    4         0.6248377862         0.0000000006
   1    4   2    4         0.1404168034         0.0000000003
   1    4   3    4         0.0000000000         0.0000000000
  
   2    4   1    1        -0.0143600862         0.0000000058
   2    4   2    1         0.0048288885        -0.0000000280
   2    4   3    1         0.0000000000         0.0000000000
   2    4   1    2        -0.0096749427        -0.0000000456
   2    4   2    2         0.0193173233        -0.0000000512
   2    4   3    2         0.0000000000         0.0000000000
   2    4   1    3        -0.1023808338         0.0000022607
   2    4   2    3         0.1908348316         0.0000014638
   2    4   3    3         0.0000000000        -0.0000000000
   2    4   1    4         0.1404168034         0.0000000003
   2    4   2    4         0.4626984278         0.0000000002
   2    4   3    4        -0.0000000000         0.0000000000
  
   3    4   1    1         0.0000000000         0.0000000000
   3    4   2    1         0.0000000000         0.0000000000
   3    4   3    1         0.0131846332        -0.0000000006
   3    4   1    2         0.0000000000         0.0000000000
   3    4   2    2         0.0000000000         0.0000000000
   3    4   3    2         0.0119620386         0.0000000600
   3    4   1    3         0.0000000000        -0.0000000000
   3    4   2    3         0.0000000000        -0.0000000000
   3    4   3    3         0.0499286177         0.0000006642
   3    4   1    4         0.0000000000         0.0000000000
   3    4   2    4        -0.0000000000         0.0000000000
   3    4   3    4        -0.0301479496         0.0000000000

  Phonon wavevector (reduced coordinates) :  0.50000  0.00000  0.00000
 Phonon energies in Hartree :
  -1.387556E-03 -1.254675E-03  2.353041E-03  2.423973E-03  2.841030E-03
   2.910687E-03  5.214063E-03  5.219810E-03  5.266618E-03  5.441658E-03
   5.915400E-03  6.010965E-03
 Phonon frequencies in cm-1    :
- -3.045333E+02 -2.753693E+02  5.164328E+02  5.320006E+02  6.235339E+02
-  6.388220E+02  1.144355E+03  1.145616E+03  1.155889E+03  1.194306E+03
-  1.298280E+03  1.319254E+03

== END DATASET(S) ==============================================================
================================================================================
  
 -outvars: echo values of variables after computation  --------
-          iomode           3
            acell      4.7163728000E+00  4.7163728000E+00  1.2175836200E+01 Bohr
              amu      1.08110000E+01  1.40067400E+01
           diemac      4.50000000E+00
             ecut      2.00000000E+01 Hartree
           etotal1    -2.6593739552E+01
           etotal3    -4.3785953936E+00
           etotal4    -8.9220669717E+00
           etotal5    -4.4695377046E+00
            fcart1     9.3538617931E-25 -5.4004546243E-25 -0.0000000000E+00
                      -9.3538617931E-25 -1.6741409335E-23 -0.0000000000E+00
                       9.3538617931E-25 -5.4004546243E-25 -0.0000000000E+00
                      -9.3538617931E-25  1.7821500260E-23 -0.0000000000E+00
            fcart3     0.0000000000E+00  0.0000000000E+00  0.0000000000E+00
                       0.0000000000E+00  0.0000000000E+00  0.0000000000E+00
                       0.0000000000E+00  0.0000000000E+00  0.0000000000E+00
                       0.0000000000E+00  0.0000000000E+00  0.0000000000E+00
            fcart4     0.0000000000E+00  0.0000000000E+00  0.0000000000E+00
                       0.0000000000E+00  0.0000000000E+00  0.0000000000E+00
                       0.0000000000E+00  0.0000000000E+00  0.0000000000E+00
                       0.0000000000E+00  0.0000000000E+00  0.0000000000E+00
            fcart5     0.0000000000E+00  0.0000000000E+00  0.0000000000E+00
                       0.0000000000E+00  0.0000000000E+00  0.0000000000E+00
                       0.0000000000E+00  0.0000000000E+00  0.0000000000E+00
                       0.0000000000E+00  0.0000000000E+00  0.0000000000E+00
-          fftalg         112
           getddk1          0
           getddk2          0
           getddk3          0
           getddk4          3
           getddk5          0
           getden1          0
           getden2          1
           getden3          0
           getden4          0
           getden5          0
           getwfk1          0
           getwfk2          1
           getwfk3          1
           getwfk4          1
           getwfk5          1
             iscf1          7
             iscf2         -2
             iscf3          7
             iscf4          7
             iscf5          7
           istwfk1       2    3
           istwfk2       1    0    0    1    0    0    0
           istwfk3       1    1    1    1
           istwfk4       1    1    1    1
           istwfk5       1    1    1    1
              ixc          11
           jdtset        1    2    3    4    5
              kpt1     0.00000000E+00  0.00000000E+00  0.00000000E+00
                       5.00000000E-01  0.00000000E+00  0.00000000E+00
              kpt2     0.00000000E+00  0.00000000E+00  0.00000000E+00
                       1.66666667E-01  0.00000000E+00  0.00000000E+00
                       3.33333333E-01  0.00000000E+00  0.00000000E+00
                       5.00000000E-01  0.00000000E+00  0.00000000E+00
                       1.66666667E-01  1.66666667E-01  0.00000000E+00
                       3.33333333E-01  1.66666667E-01  0.00000000E+00
                       3.33333333E-01  3.33333333E-01  0.00000000E+00
              kpt3     0.00000000E+00  0.00000000E+00  0.00000000E+00
                       5.00000000E-01  0.00000000E+00  0.00000000E+00
                       0.00000000E+00  5.00000000E-01  0.00000000E+00
                       5.00000000E-01  5.00000000E-01  0.00000000E+00
              kpt4     0.00000000E+00  0.00000000E+00  0.00000000E+00
                       5.00000000E-01  0.00000000E+00  0.00000000E+00
                       0.00000000E+00  5.00000000E-01  0.00000000E+00
                       5.00000000E-01  5.00000000E-01  0.00000000E+00
              kpt5     0.00000000E+00  0.00000000E+00  0.00000000E+00
                       5.00000000E-01  0.00000000E+00  0.00000000E+00
                       0.00000000E+00  5.00000000E-01  0.00000000E+00
                       5.00000000E-01  5.00000000E-01  0.00000000E+00
           kptopt1          1
           kptopt2          1
           kptopt3          3
           kptopt4          3
           kptopt5          3
         kptrlatt1       2    0    0      0    2    0      0    0    1
         kptrlatt2       6    0    0      0    6    0      0    0    1
         kptrlatt3       2    0    0      0    2    0      0    0    1
         kptrlatt4       2    0    0      0    2    0      0    0    1
         kptrlatt5       2    0    0      0    2    0      0    0    1
          kptrlen1     9.43274560E+00
          kptrlen2     1.21758362E+01
          kptrlen3     9.43274560E+00
          kptrlen4     9.43274560E+00
          kptrlen5     9.43274560E+00
P           mkmem1          2
P           mkmem2          7
P           mkmem3          4
P           mkmem4          4
P           mkmem5          4
P          mkqmem1          2
P          mkqmem2          7
P          mkqmem3          4
P          mkqmem4          4
P          mkqmem5          4
P          mk1mem1          2
P          mk1mem2          7
P          mk1mem3          4
P          mk1mem4          4
P          mk1mem5          4
            natom           4
            nband1         10
            nband2         10
            nband3          9
            nband4          9
            nband5          9
           nbdbuf1          0
           nbdbuf2          2
           nbdbuf3          0
           nbdbuf4          0
           nbdbuf5          0
           ndtset           5
            ngfft          20      20      50
             nkpt1          2
             nkpt2          7
             nkpt3          4
             nkpt4          4
             nkpt5          4
             nqpt1          0
             nqpt2          0
             nqpt3          1
             nqpt4          1
             nqpt5          1
            nstep         100
             nsym          12
           ntypat           2
              occ1     2.000000  2.000000  2.000000  2.000000  2.000000  2.000000
                       2.000000  2.000000  0.000000  0.000000
              occ3     2.000000  2.000000  2.000000  2.000000  2.000000  2.000000
                       2.000000  2.000000  0.000000
              occ4     2.000000  2.000000  2.000000  2.000000  2.000000  2.000000
                       2.000000  2.000000  0.000000
              occ5     2.000000  2.000000  2.000000  2.000000  2.000000  2.000000
                       2.000000  2.000000  0.000000
        optdriver1          0
        optdriver2          0
        optdriver3          1
        optdriver4          1
        optdriver5          1
           prtpot1          0
           prtpot2          0
           prtpot3          1
           prtpot4          1
           prtpot5          1
          prtkbff1          0
          prtkbff2          1
          prtkbff3          0
          prtkbff4          0
          prtkbff5          0
            prtwf1          1
            prtwf2          1
            prtwf3          1
            prtwf4          0
            prtwf5          0
              qpt1     0.00000000E+00  0.00000000E+00  0.00000000E+00
              qpt2     0.00000000E+00  0.00000000E+00  0.00000000E+00
              qpt3     0.00000000E+00  0.00000000E+00  0.00000000E+00
              qpt4     0.00000000E+00  0.00000000E+00  0.00000000E+00
              qpt5     5.00000000E-01  0.00000000E+00  0.00000000E+00
          rfatpol           1       4
            rfdir           1       1       1
           rfelfd1          0
           rfelfd2          0
           rfelfd3          2
           rfelfd4          3
           rfelfd5          0
           rfphon1          0
           rfphon2          0
           rfphon3          0
           rfphon4          1
           rfphon5          1
            rprim      1.0000000000E+00  0.0000000000E+00  0.0000000000E+00
                      -5.0000000000E-01  8.6602540378E-01  0.0000000000E+00
                       0.0000000000E+00  0.0000000000E+00  1.0000000000E+00
          spgroup         194
           strten1     6.4071830743E-04  6.4071830749E-04  1.4295651071E-03
                       0.0000000000E+00  0.0000000000E+00  0.0000000000E+00
           strten3     0.0000000000E+00  0.0000000000E+00  0.0000000000E+00
                       0.0000000000E+00  0.0000000000E+00  0.0000000000E+00
           strten4     0.0000000000E+00  0.0000000000E+00  0.0000000000E+00
                       0.0000000000E+00  0.0000000000E+00  0.0000000000E+00
           strten5     0.0000000000E+00  0.0000000000E+00  0.0000000000E+00
                       0.0000000000E+00  0.0000000000E+00  0.0000000000E+00
        symmorphi           0
           symrel      1  0  0   0  1  0   0  0  1       0 -1  0  -1  0  0   0  0 -1
                      -1 -1  0   1  0  0   0  0 -1      -1  0  0   1  1  0   0  0  1
                       0  1  0  -1 -1  0   0  0  1       1  1  0   0 -1  0   0  0 -1
                       1  0  0   0  1  0   0  0 -1       0 -1  0  -1  0  0   0  0  1
                      -1 -1  0   1  0  0   0  0  1      -1  0  0   1  1  0   0  0 -1
                       0  1  0  -1 -1  0   0  0 -1       1  1  0   0 -1  0   0  0  1
           toldfe1     1.00000000E-10 Hartree
           toldfe2     0.00000000E+00 Hartree
           toldfe3     0.00000000E+00 Hartree
           toldfe4     1.00000000E-10 Hartree
           toldfe5     1.00000000E-10 Hartree
           tolwfr1     0.00000000E+00
           tolwfr2     1.00000000E-08
           tolwfr3     1.00000000E-22
           tolwfr4     0.00000000E+00
           tolwfr5     0.00000000E+00
            typat      1  2  1  2
              wtk1       0.25000    0.75000
              wtk2       0.02778    0.16667    0.16667    0.08333    0.16667    0.33333
                         0.05556
              wtk3       0.25000    0.25000    0.25000    0.25000
              wtk4       0.25000    0.25000    0.25000    0.25000
              wtk5       0.25000    0.25000    0.25000    0.25000
           xangst      1.2478984965E+00  7.2047453286E-01  0.0000000000E+00
                      -1.2478984965E+00 -7.2047453286E-01  0.0000000000E+00
                      -1.2478984965E+00 -7.2047453286E-01  3.2215875063E+00
                       1.2478984965E+00  7.2047453286E-01  3.2215875063E+00
            xcart      2.3581864000E+00  1.3614995528E+00  0.0000000000E+00
                      -2.3581864000E+00 -1.3614995528E+00  0.0000000000E+00
                      -2.3581864000E+00 -1.3614995528E+00  6.0879181000E+00
                       2.3581864000E+00  1.3614995528E+00  6.0879181000E+00
             xred      6.6666666667E-01  3.3333333333E-01  0.0000000000E+00
                      -6.6666666667E-01 -3.3333333333E-01  0.0000000000E+00
                      -6.6666666667E-01 -3.3333333333E-01  5.0000000000E-01
                       6.6666666667E-01  3.3333333333E-01  5.0000000000E-01
            znucl        5.00000    7.00000

================================================================================


- Timing analysis has been suppressed with timopt=0



================================================================================

 Suggested references for the acknowledgment of ABINIT usage.

 The users of ABINIT have little formal obligations with respect to the ABINIT group
 (those specified in the GNU General Public License, http://www.gnu.org/copyleft/gpl.txt).
 However, it is common practice in the scientific literature,
 to acknowledge the efforts of people that have made the research possible.
 In this spirit, please find below suggested citations of work written by ABINIT developers,
 corresponding to implementations inside of ABINIT that you have used in the present run.
 Note also that it will be of great value to readers of publications presenting these results,
 to read papers enabling them to understand the theoretical formalism and details
 of the ABINIT implementation.
 For information on why they are suggested, see also https://docs.abinit.org/theory/acknowledgments.
-
- [1] Specification of an extensible and portable file format for electronic structure and crystallographic data
- X. Gonze, C.-O. Almbladh, A. Cucca, D. Caliste, C. Freysoldt, M. Marques, V. Olevano, Y. Pouillon, M.J. Verstraete,
- Comput. Material Science 43, 1056 (2008).
- Comment: to be cited in case the ETSF_IO file format is used, i.e. iomode=3.
- DOI and bibtex: see https://docs.abinit.org/theory/bibliography/#gonze2008
-
- [2] The Abinit project: Impact, environment and recent developments.
- Computer Phys. Comm. 248, 107042 (2020).
- X.Gonze, B. Amadon, G. Antonius, F.Arnardi, L.Baguet, J.-M.Beuken,
- J.Bieder, F.Bottin, J.Bouchet, E.Bousquet, N.Brouwer, F.Bruneval,
- G.Brunin, T.Cavignac, J.-B. Charraud, Wei Chen, M.Cote, S.Cottenier,
- J.Denier, G.Geneste, Ph.Ghosez, M.Giantomassi, Y.Gillet, O.Gingras,
- D.R.Hamann, G.Hautier, Xu He, N.Helbig, N.Holzwarth, Y.Jia, F.Jollet,
- W.Lafargue-Dit-Hauret, K.Lejaeghere, M.A.L.Marques, A.Martin, C.Martins,
- H.P.C. Miranda, F.Naccarato, K. Persson, G.Petretto, V.Planes, Y.Pouillon,
- S.Prokhorenko, F.Ricci, G.-M.Rignanese, A.H.Romero, M.M.Schmitt, M.Torrent,
- M.J.van Setten, B.Van Troeye, M.J.Verstraete, G.Zerah and J.W.Zwanzig
- Comment: the fifth generic paper describing the ABINIT project.
- Note that a version of this paper, that is not formatted for Computer Phys. Comm. 
- is available at https://www.abinit.org/sites/default/files/ABINIT20.pdf .
- The licence allows the authors to put it on the Web.
- DOI and bibtex: see https://docs.abinit.org/theory/bibliography/#gonze2020
-
- [3] First-principles responses of solids to atomic displacements and homogeneous electric fields:,
- implementation of a conjugate-gradient algorithm. X. Gonze, Phys. Rev. B55, 10337 (1997).
- Comment: Non-vanishing rfphon and/or rfelfd, in the norm-conserving case.
- DOI and bibtex: see https://docs.abinit.org/theory/bibliography/#gonze1997
-
- [4] Dynamical matrices, Born effective charges, dielectric permittivity tensors, and ,
- interatomic force constants from density-functional perturbation theory,
- X. Gonze and C. Lee, Phys. Rev. B55, 10355 (1997).
- Comment: Non-vanishing rfphon and/or rfelfd, in the norm-conserving case.
- DOI and bibtex: see https://docs.abinit.org/theory/bibliography/#gonze1997a
-
- [5] Optimized norm-conserving Vanderbilt pseudopotentials.
- D.R. Hamann, Phys. Rev. B 88, 085117 (2013).
- Comment: Some pseudopotential generated using the ONCVPSP code were used.
- DOI and bibtex: see https://docs.abinit.org/theory/bibliography/#hamann2013
-
- [6] ABINIT: Overview, and focus on selected capabilities
- J. Chem. Phys. 152, 124102 (2020).
- A. Romero, D.C. Allan, B. Amadon, G. Antonius, T. Applencourt, L.Baguet,
- J.Bieder, F.Bottin, J.Bouchet, E.Bousquet, F.Bruneval,
- G.Brunin, D.Caliste, M.Cote,
- J.Denier, C. Dreyer, Ph.Ghosez, M.Giantomassi, Y.Gillet, O.Gingras,
- D.R.Hamann, G.Hautier, F.Jollet, G. Jomard,
- A.Martin, 
- H.P.C. Miranda, F.Naccarato, G.Petretto, N.A. Pike, V.Planes,
- S.Prokhorenko, T. Rangel, F.Ricci, G.-M.Rignanese, M.Royo, M.Stengel, M.Torrent,
- M.J.van Setten, B.Van Troeye, M.J.Verstraete, J.Wiktor, J.W.Zwanziger, and X.Gonze.
- Comment: a global overview of ABINIT, with focus on selected capabilities .
- Note that a version of this paper, that is not formatted for J. Chem. Phys 
- is available at https://www.abinit.org/sites/default/files/ABINIT20_JPC.pdf .
- The licence allows the authors to put it on the Web.
- DOI and bibtex: see https://docs.abinit.org/theory/bibliography/#romero2020
-
- [7] Recent developments in the ABINIT software package.
- Computer Phys. Comm. 205, 106 (2016).
- X.Gonze, F.Jollet, F.Abreu Araujo, D.Adams, B.Amadon, T.Applencourt,
- C.Audouze, J.-M.Beuken, J.Bieder, A.Bokhanchuk, E.Bousquet, F.Bruneval
- D.Caliste, M.Cote, F.Dahm, F.Da Pieve, M.Delaveau, M.Di Gennaro,
- B.Dorado, C.Espejo, G.Geneste, L.Genovese, A.Gerossier, M.Giantomassi,
- Y.Gillet, D.R.Hamann, L.He, G.Jomard, J.Laflamme Janssen, S.Le Roux,
- A.Levitt, A.Lherbier, F.Liu, I.Lukacevic, A.Martin, C.Martins,
- M.J.T.Oliveira, S.Ponce, Y.Pouillon, T.Rangel, G.-M.Rignanese,
- A.H.Romero, B.Rousseau, O.Rubel, A.A.Shukri, M.Stankovski, M.Torrent,
- M.J.Van Setten, B.Van Troeye, M.J.Verstraete, D.Waroquier, J.Wiktor,
- B.Xu, A.Zhou, J.W.Zwanziger.
- Comment: the fourth generic paper describing the ABINIT project.
- Note that a version of this paper, that is not formatted for Computer Phys. Comm. 
- is available at https://www.abinit.org/sites/default/files/ABINIT16.pdf .
- The licence allows the authors to put it on the Web.
- DOI and bibtex: see https://docs.abinit.org/theory/bibliography/#gonze2016
-
- Proc.   0 individual time (sec): cpu=         38.6  wall=         63.7

================================================================================

 Calculation completed.
.Delivered   4 WARNINGs and  13 COMMENTs to log file.
+Overall time at end (sec) : cpu=         38.6  wall=         63.7
