  ABINIT 9.7.4
  
 DeprecationWarning: 

     The files file has been deprecated in Abinit9 and will be removed in Abinit10.
     Use the syntax `abinit t01.abi` where t01.abi is an input with pseudopotentials e.g.

            pseudos = "al.psp8, as.psp8"


  Give name for formatted input file: 
inputs_new/01hbn.in
  Give name for formatted output file:
01hbn_new.out
  Give root name for generic input files:
io_dir_new/hbn_in
  Give root name for generic output files:
io_dir_new/hbn_out
  Give root name for generic temporary files:
io_dir_new/hbn_t


.Version 9.7.4 of ABINIT 
.(MPI version, prepared for a x86_64_linux_gnu9.4 computer) 

.Copyright (C) 1998-2022 ABINIT group . 
 ABINIT comes with ABSOLUTELY NO WARRANTY.
 It is free software, and you are welcome to redistribute it
 under certain conditions (GNU General Public License,
 see ~abinit/COPYING or http://www.gnu.org/copyleft/gpl.txt).

 ABINIT is a project of the Universite Catholique de Louvain,
 Corning Inc. and other collaborators, see ~abinit/doc/developers/contributors.txt .
 Please read https://docs.abinit.org/theory/acknowledgments for suggested
 acknowledgments of the ABINIT effort.
 For more information, see https://www.abinit.org .

.Starting date : Thu 22 Sep 2022.
- ( at 09h36 )
  

 ++++++++++++++++++++++++++++++++++++++++++++++++++++++++++++++++++++++++++++++

 === Build Information === 
  Version       : 9.7.4
  Build target  : x86_64_linux_gnu9.4
  Build date    : 20220527

 === Compiler Suite === 
  C compiler       : gnu9.4
  C++ compiler     : gnu9.4
  Fortran compiler : gnu9.4
  CFLAGS           : -g -O2
  CXXFLAGS         : -g -O2 -mtune=native -march=native
  FCFLAGS          : -g -ffree-line-length-none  -fopenmp   -I/data/shared/yambo-libs/de ...
  FC_LDFLAGS       : 

 === Optimizations === 
  Debug level        : basic
  Optimization level : standard
  Architecture       : unknown_unknown

 === Multicore === 
  Parallel build : yes
  Parallel I/O   : yes
  openMP support : yes
  GPU support    : 

 === Connectors / Fallbacks === 
  LINALG flavor  : netlib
  FFT flavor     : goedecker
  HDF5           : yes
  NetCDF         : yes
  NetCDF Fortran : yes
  LibXC          : yes
  Wannier90      : no

 === Experimental features === 
  Exports             : 
  GW double-precision : 

 ++++++++++++++++++++++++++++++++++++++++++++++++++++++++++++++++++++++++++++++


 ++++++++++++++++++++++++++++++++++++++++++++++++++++++++++++++++++++++++++++++
 Default optimizations:
   -O2 -mtune=native -march=native


 Optimizations for 43_ptgroups:
   -O0


 ++++++++++++++++++++++++++++++++++++++++++++++++++++++++++++++++++++++++++++++


 ++++++++++++++++++++++++++++++++++++++++++++++++++++++++++++++++++++++++++++++
 CPP options activated during the build:

                    CC_GNU                   CXX_GNU                    FC_GNU
 
 HAVE_FC_ALLOCATABLE_DT...             HAVE_FC_ASYNC         HAVE_FC_BACKTRACE
 
  HAVE_FC_COMMAND_ARGUMENT      HAVE_FC_COMMAND_LINE        HAVE_FC_CONTIGUOUS
 
           HAVE_FC_CPUTIME              HAVE_FC_EXIT             HAVE_FC_FLUSH
 
             HAVE_FC_GAMMA            HAVE_FC_GETENV   HAVE_FC_IEEE_ARITHMETIC
 
   HAVE_FC_IEEE_EXCEPTIONS          HAVE_FC_INT_QUAD             HAVE_FC_IOMSG
 
     HAVE_FC_ISO_C_BINDING  HAVE_FC_ISO_FORTRAN_2008        HAVE_FC_LONG_LINES
 
        HAVE_FC_MOVE_ALLOC  HAVE_FC_ON_THE_FLY_SHAPE           HAVE_FC_PRIVATE
 
         HAVE_FC_PROTECTED           HAVE_FC_SHIFTLR         HAVE_FC_STREAM_IO
 
            HAVE_FC_SYSTEM          HAVE_FORTRAN2003                 HAVE_HDF5
 
             HAVE_HDF5_MPI        HAVE_LIBPAW_ABINIT      HAVE_LIBTETRA_ABINIT
 
                HAVE_LIBXC                  HAVE_MPI                 HAVE_MPI2
 
       HAVE_MPI_IALLGATHER       HAVE_MPI_IALLREDUCE        HAVE_MPI_IALLTOALL
 
       HAVE_MPI_IALLTOALLV           HAVE_MPI_IBCAST         HAVE_MPI_IGATHERV
 
        HAVE_MPI_INTEGER16               HAVE_MPI_IO HAVE_MPI_TYPE_CREATE_S...
 
               HAVE_NETCDF       HAVE_NETCDF_FORTRAN   HAVE_NETCDF_FORTRAN_MPI
 
           HAVE_NETCDF_MPI                HAVE_NUMPY         HAVE_OMP_COLLAPSE
 
               HAVE_OPENMP             HAVE_OS_LINUX         HAVE_TIMER_ABINIT
 
 ++++++++++++++++++++++++++++++++++++++++++++++++++++++++++++++++++++++++++++++

- input  file    -> inputs_new/01hbn.in
- output file    -> 01hbn_new.out
- root for input  files -> io_dir_new/hbn_in
- root for output files -> io_dir_new/hbn_out

 Netcdf library supports MPI-IO
-instrng: 109 lines of input have been read from file inputs_new/01hbn.in

 For atom type 1, psp file is B.psp8
 For atom type 2, psp file is N.psp8
  read the values zionpsp=  3.0 , pspcod=   8 , lmax=   1
  read the values zionpsp=  5.0 , pspcod=   8 , lmax=   1

 inpspheads: deduce mpsang = 2, n1xccc = 2501.

======================================================= 
 invars1m : enter jdtset= 1

 symlatt: the Bravais lattice is hP (primitive hexagonal)
  xcart  is defined in input file (possibly in Angstrom)
 ingeo: takes atomic coordinates from input array xcart

--- !COMMENT
src_file: m_ingeo.F90
src_line: 900
message: |
    The tolerance on symmetries =   1.000E-05 is bigger than 1.0e-8.
    In order to avoid spurious effects, the atomic coordinates have been
    symmetrized before storing them in the dataset internal variable.
    So, do not be surprised by the fact that your input variables (xcart, xred, ...)
    do not correspond exactly to the ones echoed by ABINIT, the latter being used to do the calculations.
    This is not a problem per se.
    Still, in order to avoid this symmetrization (e.g. for specific debugging/development), decrease tolsym to 1.0e-8 or lower,
    or (much preferred) use input primitive vectors that are accurate to better than 1.0e-8.
    This message will only be printed once, even if there are other datasets where tolsym is bigger than 1.0e-8.
...


 symlatt: the Bravais lattice is hP (primitive hexagonal)

 symlatt: the Bravais lattice is hP (primitive hexagonal)
 symspgr: spgroup= 194  P6_3/m m c   (=D6h^4)
 symspgr: optical characteristics = uniaxial
 Optical axis (in reduced coordinates, real space ) :   0   0   1

======================================================= 
 invars1m : enter jdtset= 2

 symlatt: the Bravais lattice is hP (primitive hexagonal)
  xcart  is defined in input file (possibly in Angstrom)
 ingeo: takes atomic coordinates from input array xcart

 symlatt: the Bravais lattice is hP (primitive hexagonal)

 symlatt: the Bravais lattice is hP (primitive hexagonal)
 symspgr: spgroup= 194  P6_3/m m c   (=D6h^4)
 symspgr: optical characteristics = uniaxial
 Optical axis (in reduced coordinates, real space ) :   0   0   1

======================================================= 
 invars1m : enter jdtset= 3

 symlatt: the Bravais lattice is hP (primitive hexagonal)
  xcart  is defined in input file (possibly in Angstrom)
 ingeo: takes atomic coordinates from input array xcart

 symlatt: the Bravais lattice is hP (primitive hexagonal)

 symlatt: the Bravais lattice is hP (primitive hexagonal)
 symspgr: spgroup= 194  P6_3/m m c   (=D6h^4)
 symspgr: optical characteristics = uniaxial
 Optical axis (in reduced coordinates, real space ) :   0   0   1

======================================================= 
 invars1m : enter jdtset= 4

 symlatt: the Bravais lattice is hP (primitive hexagonal)
  xcart  is defined in input file (possibly in Angstrom)
 ingeo: takes atomic coordinates from input array xcart

 symlatt: the Bravais lattice is hP (primitive hexagonal)

 symlatt: the Bravais lattice is hP (primitive hexagonal)
 symspgr: spgroup= 194  P6_3/m m c   (=D6h^4)
 symspgr: optical characteristics = uniaxial
 Optical axis (in reduced coordinates, real space ) :   0   0   1

======================================================= 
 invars1m : enter jdtset= 5

 symlatt: the Bravais lattice is hP (primitive hexagonal)
  xcart  is defined in input file (possibly in Angstrom)
 ingeo: takes atomic coordinates from input array xcart

 symlatt: the Bravais lattice is hP (primitive hexagonal)

 symlatt: the Bravais lattice is hP (primitive hexagonal)
 symspgr: spgroup= 194  P6_3/m m c   (=D6h^4)
 symspgr: optical characteristics = uniaxial
 Optical axis (in reduced coordinates, real space ) :   0   0   1

--- !WARNING
src_file: m_invars2.F90
src_line: 2037
message: |
    nbdbuf is not specified in input, using `nbdbuf = 2*nspinor` that may be too small!
    As a consequence, the NSCF cycle may have problems to converge the last bands within nstep iterations.
    To avoid this problem specify nbdbuf in the input file and adjust nband accordingly.
...

 invars2: take the default value of fband=  1.25000000E-01
 invars2: take the default value of fband=  1.25000000E-01
 invars2: take the default value of fband=  1.25000000E-01
 For input ecut=  2.000000E+01 best grid ngfft=      20      20      50
       max ecut=  2.080426E+01

 ==== FFT mesh ====
  FFT mesh divisions ........................    20   20   50
  Augmented FFT divisions ...................    21   21   50
  FFT algorithm .............................   112
  FFT cache size ............................    16
 getmpw: optimal value of mpw= 508
 For input ecut=  2.000000E+01 best grid ngfft=      20      20      50
       max ecut=  2.080426E+01

 ==== FFT mesh ====
  FFT mesh divisions ........................    20   20   50
  Augmented FFT divisions ...................    21   21   50
  FFT algorithm .............................   112
  FFT cache size ............................    16
 getmpw: optimal value of mpw= 1016
 For input ecut=  2.000000E+01 best grid ngfft=      20      20      50
       max ecut=  2.080426E+01

 ==== FFT mesh ====
  FFT mesh divisions ........................    20   20   50
  Augmented FFT divisions ...................    21   21   50
  FFT algorithm .............................   112
  FFT cache size ............................    16
 getmpw: optimal value of mpw= 1016
 getmpw: optimal value of mpw= 1016
 For input ecut=  2.000000E+01 best grid ngfft=      20      20      50
       max ecut=  2.080426E+01

 ==== FFT mesh ====
  FFT mesh divisions ........................    20   20   50
  Augmented FFT divisions ...................    21   21   50
  FFT algorithm .............................   112
  FFT cache size ............................    16
 getmpw: optimal value of mpw= 1016
 getmpw: optimal value of mpw= 1016
 For input ecut=  2.000000E+01 best grid ngfft=      20      20      50
       max ecut=  2.080426E+01

 ==== FFT mesh ====
  FFT mesh divisions ........................    20   20   50
  Augmented FFT divisions ...................    21   21   50
  FFT algorithm .............................   112
  FFT cache size ............................    16
 getmpw: optimal value of mpw= 1016
 getmpw: optimal value of mpw= 1016

 DATASET    1 : space group P6_3/m m c (#194); Bravais hP (primitive hexag.)

 getdim_nloc : deduce lmnmax  =   8, lnmax  =   4,
                      lmnmaxso=   8, lnmaxso=   4.
memory: analysis of memory needs
================================================================================
 Values of the parameters that define the memory need for DATASET  1.
     intxc =       0    ionmov =       0      iscf =       7    lmnmax =       4
     lnmax =       4     mgfft =      50  mpssoang =       2    mqgrid =    3001
     natom =       4  nloc_mem =       1    nspden =       1   nspinor =       1
    nsppol =       1      nsym =      12    n1xccc =    2501    ntypat =       2
    occopt =       1   xclevel =       2
-    mband =          10        mffmem =           1         mkmem =           2
       mpw =         508          nfft =       20000          nkpt =           2
================================================================================
P This job should need less than                       7.608 Mbytes of memory.
  Rough estimation (10% accuracy) of disk space for files :
_ WF disk file :      0.157 Mbytes ; DEN or POT disk file :      0.155 Mbytes.
================================================================================

 Biggest array : f_fftgr(disk), with      2.4434 MBytes.
 memana : allocated an array of      2.443 Mbytes, for testing purposes.
 memana: allocated       7.608Mbytes, for testing purposes. 
 The job will continue.

 DATASET    2 : space group P6_3/m m c (#194); Bravais hP (primitive hexag.)

 getdim_nloc : deduce lmnmax  =   8, lnmax  =   4,
                      lmnmaxso=   8, lnmaxso=   4.
memory: analysis of memory needs
================================================================================
 Values of the parameters that define the memory need for DATASET  2.
     intxc =       0    ionmov =       0      iscf =      -2    lmnmax =       4
     lnmax =       4     mgfft =      50  mpssoang =       2    mqgrid =    3001
     natom =       4  nloc_mem =       1    nspden =       1   nspinor =       1
    nsppol =       1      nsym =      12    n1xccc =    2501    ntypat =       2
    occopt =       1   xclevel =       2
-    mband =          10        mffmem =           1         mkmem =           7
       mpw =        1016          nfft =       20000          nkpt =           7
================================================================================
P This job should need less than                       6.147 Mbytes of memory.
  Rough estimation (10% accuracy) of disk space for files :
_ WF disk file :      1.087 Mbytes ; DEN or POT disk file :      0.155 Mbytes.
================================================================================

 Biggest array : cg(disk), with      1.0872 MBytes.
 memana : allocated an array of      1.087 Mbytes, for testing purposes.
 memana: allocated       6.147Mbytes, for testing purposes. 
 The job will continue.

 DATASET    3 : space group P6_3/m m c (#194); Bravais hP (primitive hexag.)

 getdim_nloc : deduce lmnmax  =   8, lnmax  =   4,
                      lmnmaxso=   8, lnmaxso=   4.
 memorf : analysis of memory needs
================================================================================
 Values of the parameters that define the memory need for DATASET  3 (RF).
     intxc =       0      iscf =       7    lmnmax =       4     lnmax =       4
     mgfft =      50  mpssoang =       2    mqgrid =    3001     natom =       4
  nloc_mem =       1    nspden =       1   nspinor =       1    nsppol =       1
      nsym =      12    n1xccc =    2501    ntypat =       2    occopt =       1
   xclevel =       2
-    mband =           9        mffmem =           1         mkmem =           4
-   mkqmem =           4        mk1mem =           4           mpw =        1016
      nfft =       20000          nkpt =           4
================================================================================
P This job should need less than                       7.371 Mbytes of memory.
  Rough estimation (10% accuracy) of disk space for files :
_ WF disk file :      0.560 Mbytes ; DEN or POT disk file :      0.155 Mbytes.
================================================================================

 Biggest array : cg(disk), with      0.5601 MBytes.
 memana : allocated an array of      0.560 Mbytes, for testing purposes.
 memana: allocated       7.371Mbytes, for testing purposes. 
 The job will continue.

 DATASET    4 : space group P6_3/m m c (#194); Bravais hP (primitive hexag.)

 getdim_nloc : deduce lmnmax  =   8, lnmax  =   4,
                      lmnmaxso=   8, lnmaxso=   4.
 memorf : analysis of memory needs
================================================================================
 Values of the parameters that define the memory need for DATASET  4 (RF).
     intxc =       0      iscf =       7    lmnmax =       4     lnmax =       4
     mgfft =      50  mpssoang =       2    mqgrid =    3001     natom =       4
  nloc_mem =       1    nspden =       1   nspinor =       1    nsppol =       1
      nsym =      12    n1xccc =    2501    ntypat =       2    occopt =       1
   xclevel =       2
-    mband =           9        mffmem =           1         mkmem =           4
-   mkqmem =           4        mk1mem =           4           mpw =        1016
      nfft =       20000          nkpt =           4
================================================================================
P This job should need less than                       7.371 Mbytes of memory.
  Rough estimation (10% accuracy) of disk space for files :
_ WF disk file :      0.560 Mbytes ; DEN or POT disk file :      0.155 Mbytes.
================================================================================

 Biggest array : cg(disk), with      0.5601 MBytes.
 memana : allocated an array of      0.560 Mbytes, for testing purposes.
 memana: allocated       7.371Mbytes, for testing purposes. 
 The job will continue.

 DATASET    5 : space group P6_3/m m c (#194); Bravais hP (primitive hexag.)

 getdim_nloc : deduce lmnmax  =   8, lnmax  =   4,
                      lmnmaxso=   8, lnmaxso=   4.
 memorf : analysis of memory needs
================================================================================
 Values of the parameters that define the memory need for DATASET  5 (RF).
     intxc =       0      iscf =       7    lmnmax =       4     lnmax =       4
     mgfft =      50  mpssoang =       2    mqgrid =    3001     natom =       4
  nloc_mem =       1    nspden =       1   nspinor =       1    nsppol =       1
      nsym =      12    n1xccc =    2501    ntypat =       2    occopt =       1
   xclevel =       2
-    mband =           9        mffmem =           1         mkmem =           4
-   mkqmem =           4        mk1mem =           4           mpw =        1016
      nfft =       20000          nkpt =           4
================================================================================
P This job should need less than                       8.470 Mbytes of memory.
  Rough estimation (10% accuracy) of disk space for files :
_ WF disk file :      0.560 Mbytes ; DEN or POT disk file :      0.155 Mbytes.
================================================================================

 Biggest array : cg(disk), with      0.5601 MBytes.
 memana : allocated an array of      0.560 Mbytes, for testing purposes.
 memana: allocated       8.470Mbytes, for testing purposes. 
 The job will continue.
--------------------------------------------------------------------------------
------------- Echo of variables that govern the present computation ------------
--------------------------------------------------------------------------------
-
- outvars: echo of selected default values                                      
-   iomode0 =  0 , fftalg0 =112 , wfoptalg0 =  0
-
- outvars: echo of global parameters not present in the input file              
-  max_nthreads =    1
-
 -outvars: echo values of preprocessed input variables --------
 
 These variables are accessible in NetCDF format (io_dir_new/hbn_out_OUT.nc)

-          iomode           3
            acell      4.7163728000E+00  4.7163728000E+00  1.2175836200E+01 Bohr
              amu      1.08110000E+01  1.40067400E+01
           diemac      4.50000000E+00
             ecut      2.00000000E+01 Hartree
-          fftalg         112
           getddk1          0
           getddk2          0
           getddk3          0
           getddk4          3
           getddk5          0
           getden1          0
           getden2          1
           getden3          0
           getden4          0
           getden5          0
           getwfk1          0
           getwfk2          1
           getwfk3          1
           getwfk4          1
           getwfk5          1
             iscf1          7
             iscf2         -2
             iscf3          7
             iscf4          7
             iscf5          7
           istwfk1       2    3
           istwfk2       1    0    0    1    0    0    0
           istwfk3       1    1    1    1
           istwfk4       1    1    1    1
           istwfk5       1    1    1    1
              ixc          11
           jdtset        1    2    3    4    5
              kpt1     0.00000000E+00  0.00000000E+00  0.00000000E+00
                       5.00000000E-01  0.00000000E+00  0.00000000E+00
              kpt2     0.00000000E+00  0.00000000E+00  0.00000000E+00
                       1.66666667E-01  0.00000000E+00  0.00000000E+00
                       3.33333333E-01  0.00000000E+00  0.00000000E+00
                       5.00000000E-01  0.00000000E+00  0.00000000E+00
                       1.66666667E-01  1.66666667E-01  0.00000000E+00
                       3.33333333E-01  1.66666667E-01  0.00000000E+00
                       3.33333333E-01  3.33333333E-01  0.00000000E+00
              kpt3     0.00000000E+00  0.00000000E+00  0.00000000E+00
                       5.00000000E-01  0.00000000E+00  0.00000000E+00
                       0.00000000E+00  5.00000000E-01  0.00000000E+00
                       5.00000000E-01  5.00000000E-01  0.00000000E+00
              kpt4     0.00000000E+00  0.00000000E+00  0.00000000E+00
                       5.00000000E-01  0.00000000E+00  0.00000000E+00
                       0.00000000E+00  5.00000000E-01  0.00000000E+00
                       5.00000000E-01  5.00000000E-01  0.00000000E+00
              kpt5     0.00000000E+00  0.00000000E+00  0.00000000E+00
                       5.00000000E-01  0.00000000E+00  0.00000000E+00
                       0.00000000E+00  5.00000000E-01  0.00000000E+00
                       5.00000000E-01  5.00000000E-01  0.00000000E+00
           kptopt1          1
           kptopt2          1
           kptopt3          3
           kptopt4          3
           kptopt5          3
         kptrlatt1       2    0    0      0    2    0      0    0    1
         kptrlatt2       6    0    0      0    6    0      0    0    1
         kptrlatt3       2    0    0      0    2    0      0    0    1
         kptrlatt4       2    0    0      0    2    0      0    0    1
         kptrlatt5       2    0    0      0    2    0      0    0    1
          kptrlen1     9.43274560E+00
          kptrlen2     1.21758362E+01
          kptrlen3     9.43274560E+00
          kptrlen4     9.43274560E+00
          kptrlen5     9.43274560E+00
P           mkmem1          2
P           mkmem2          7
P           mkmem3          4
P           mkmem4          4
P           mkmem5          4
P          mkqmem1          2
P          mkqmem2          7
P          mkqmem3          4
P          mkqmem4          4
P          mkqmem5          4
P          mk1mem1          2
P          mk1mem2          7
P          mk1mem3          4
P          mk1mem4          4
P          mk1mem5          4
            natom           4
            nband1         10
            nband2         10
            nband3          9
            nband4          9
            nband5          9
           nbdbuf1          0
           nbdbuf2          2
           nbdbuf3          0
           nbdbuf4          0
           nbdbuf5          0
           ndtset           5
            ngfft          20      20      50
             nkpt1          2
             nkpt2          7
             nkpt3          4
             nkpt4          4
             nkpt5          4
             nqpt1          0
             nqpt2          0
             nqpt3          1
             nqpt4          1
             nqpt5          1
            nstep         100
             nsym          12
           ntypat           2
              occ1     2.000000  2.000000  2.000000  2.000000  2.000000  2.000000
                       2.000000  2.000000  0.000000  0.000000
              occ3     2.000000  2.000000  2.000000  2.000000  2.000000  2.000000
                       2.000000  2.000000  0.000000
              occ4     2.000000  2.000000  2.000000  2.000000  2.000000  2.000000
                       2.000000  2.000000  0.000000
              occ5     2.000000  2.000000  2.000000  2.000000  2.000000  2.000000
                       2.000000  2.000000  0.000000
        optdriver1          0
        optdriver2          0
        optdriver3          1
        optdriver4          1
        optdriver5          1
           prtpot1          0
           prtpot2          0
           prtpot3          1
           prtpot4          1
           prtpot5          1
          prtkbff1          0
          prtkbff2          1
          prtkbff3          0
          prtkbff4          0
          prtkbff5          0
            prtwf1          1
            prtwf2          1
            prtwf3          1
            prtwf4          0
            prtwf5          0
              qpt1     0.00000000E+00  0.00000000E+00  0.00000000E+00
              qpt2     0.00000000E+00  0.00000000E+00  0.00000000E+00
              qpt3     0.00000000E+00  0.00000000E+00  0.00000000E+00
              qpt4     0.00000000E+00  0.00000000E+00  0.00000000E+00
              qpt5     5.00000000E-01  0.00000000E+00  0.00000000E+00
          rfatpol           1       4
            rfdir           1       1       1
           rfelfd1          0
           rfelfd2          0
           rfelfd3          2
           rfelfd4          3
           rfelfd5          0
           rfphon1          0
           rfphon2          0
           rfphon3          0
           rfphon4          1
           rfphon5          1
            rprim      1.0000000000E+00  0.0000000000E+00  0.0000000000E+00
                      -5.0000000000E-01  8.6602540378E-01  0.0000000000E+00
                       0.0000000000E+00  0.0000000000E+00  1.0000000000E+00
          spgroup         194
        symmorphi           0
           symrel      1  0  0   0  1  0   0  0  1       0 -1  0  -1  0  0   0  0 -1
                      -1 -1  0   1  0  0   0  0 -1      -1  0  0   1  1  0   0  0  1
                       0  1  0  -1 -1  0   0  0  1       1  1  0   0 -1  0   0  0 -1
                       1  0  0   0  1  0   0  0 -1       0 -1  0  -1  0  0   0  0  1
                      -1 -1  0   1  0  0   0  0  1      -1  0  0   1  1  0   0  0 -1
                       0  1  0  -1 -1  0   0  0 -1       1  1  0   0 -1  0   0  0  1
           toldfe1     1.00000000E-10 Hartree
           toldfe2     0.00000000E+00 Hartree
           toldfe3     0.00000000E+00 Hartree
           toldfe4     1.00000000E-10 Hartree
           toldfe5     1.00000000E-10 Hartree
           tolwfr1     0.00000000E+00
           tolwfr2     1.00000000E-08
           tolwfr3     1.00000000E-22
           tolwfr4     0.00000000E+00
           tolwfr5     0.00000000E+00
            typat      1  2  1  2
              wtk1       0.25000    0.75000
              wtk2       0.02778    0.16667    0.16667    0.08333    0.16667    0.33333
                         0.05556
              wtk3       0.25000    0.25000    0.25000    0.25000
              wtk4       0.25000    0.25000    0.25000    0.25000
              wtk5       0.25000    0.25000    0.25000    0.25000
           xangst      1.2478984965E+00  7.2047453286E-01  0.0000000000E+00
                      -1.2478984965E+00 -7.2047453286E-01  0.0000000000E+00
                      -1.2478984965E+00 -7.2047453286E-01  3.2215875063E+00
                       1.2478984965E+00  7.2047453286E-01  3.2215875063E+00
            xcart      2.3581864000E+00  1.3614995528E+00  0.0000000000E+00
                      -2.3581864000E+00 -1.3614995528E+00  0.0000000000E+00
                      -2.3581864000E+00 -1.3614995528E+00  6.0879181000E+00
                       2.3581864000E+00  1.3614995528E+00  6.0879181000E+00
             xred      6.6666666667E-01  3.3333333333E-01  0.0000000000E+00
                      -6.6666666667E-01 -3.3333333333E-01  0.0000000000E+00
                      -6.6666666667E-01 -3.3333333333E-01  5.0000000000E-01
                       6.6666666667E-01  3.3333333333E-01  5.0000000000E-01
            znucl        5.00000    7.00000

================================================================================

 chkinp: Checking input parameters for consistency, jdtset=   1.

 chkinp: Checking input parameters for consistency, jdtset=   2.

 chkinp: Checking input parameters for consistency, jdtset=   3.

 chkinp: Checking input parameters for consistency, jdtset=   4.

 chkinp: Checking input parameters for consistency, jdtset=   5.
 DATA TYPE INFORMATION: 
 REAL:      Data type name: REAL(DP) 
            Kind value:      8
            Precision:      15
            Smallest nonnegligible quantity relative to 1: 0.22204460E-015
            Smallest positive number:                      0.22250739E-307
            Largest representable number:                  0.17976931E+309
 INTEGER:   Data type name: INTEGER(default) 
            Kind value: 4
            Bit size:   32
            Largest representable number: 2147483647
 LOGICAL:   Data type name: LOGICAL 
            Kind value: 4
 CHARACTER: Data type name: CHARACTER             Kind value: 1

  ==== OpenMP parallelism is ON ====
- Max_threads:       1
- Num_threads:       1
- Num_procs:         6
- Dynamic:           F
 
  ==== Using MPI-2 specifications ==== 
  MPI-IO support is ON
  xmpi_tag_ub ................    268435455
  xmpi_bsize_ch ..............            1
  xmpi_bsize_int .............            4
  xmpi_bsize_sp ..............            4
  xmpi_bsize_dp ..............            8
  xmpi_bsize_spc .............            8
  xmpi_bsize_dpc .............           16
  xmpio_bsize_frm ............            4
  xmpi_address_kind ..........            8
  xmpi_offset_kind ...........            8
  MPI_WTICK ..................    1.0000000000000001E-009

================================================================================
== DATASET  1 ==================================================================
-   mpi_nproc: 1, omp_nthreads: 1 (-1 if OMP is not activated)


--- !COMMENT
src_file: m_xgScalapack.F90
src_line: 236
message: |
    xgScalapack in auto mode
...


 getdim_nloc : deduce lmnmax  =   8, lnmax  =   4,
                      lmnmaxso=   8, lnmaxso=   4.
 Exchange-correlation functional for the present dataset will be:
  GGA: Perdew-Burke-Ernzerhof functional - ixc=11
 Citation for XC functional:
  J.P.Perdew, K.Burke, M.Ernzerhof, PRL 77, 3865 (1996)

 Unit cell volume ucvol=  2.3455553E+02 bohr^3
 Angles (23,13,12)=  9.00000000E+01  9.00000000E+01  1.20000000E+02 degrees

 getcut: wavevector=  0.0000  0.0000  0.0000  ngfft=  20  20  50
         ecut(hartree)=     20.000   => boxcut(ratio)=   2.03982
- pspini: atom type   1  psp file is B.psp8
- pspatm: opening atomic psp file    B.psp8
- B     ONCVPSP-3.2.3.1  r_core=   1.20849   1.20849
-  5.00000   3.00000    170503                znucl, zion, pspdat
    8   11    1    4       600   0.00000      pspcod,pspxc,lmax,lloc,mmax,r2well
    5.99000000000000    2.90000000000000    0.00000000000000   rchrg,fchrg,qchrg
     nproj     2     2
     extension_switch     1
  valence charge integrates to:    2.9827082303705561     
  pspatm : epsatm=    3.38844677
         --- l  ekb(1:nproj) -->
             0    8.382104    1.234201
             1   -3.719492   -0.867526
 pspatm: atomic psp has been read  and splines computed

- pspini: atom type   2  psp file is N.psp8
- pspatm: opening atomic psp file    N.psp8
- N     ONCVPSP-3.2.3.1  r_core=   1.20551   1.35824
-  7.00000   5.00000    170503                znucl, zion, pspdat
    8   11    1    4       600   0.00000      pspcod,pspxc,lmax,lloc,mmax,r2well
    5.99000000000000    4.00000000000000    0.00000000000000   rchrg,fchrg,qchrg
     nproj     2     2
     extension_switch     1
  valence charge integrates to:    4.9973675462084248     
  pspatm : epsatm=    5.20978323
         --- l  ekb(1:nproj) -->
             0    7.494509    0.636305
             1   -4.293905   -1.006988
 pspatm: atomic psp has been read  and splines computed

   2.75143360E+02                                ecore*ucvol(ha*bohr**3)
 ==== Info on pseudopotentials ====
  Norm-conserving pseudopotentials
  Number of pseudopotentials ..    2
  Number of types of atoms   ..    2
  Scalar calculation (no spin-orbit term)
  Nonlocal part applied using Legendre polynomials
  Max number of non-local projectors over l and type   2
  Highest angular momentum +1 .......   2
  Max number of (l,n)   components ..   4
  Max number of (l,m,n) components ..   4

 Pseudo-Core Charge Info: 
   Number of radial points for pseudo-core charge .. 2501
   XC core-correction treatment (optnlxccc) ........    1
   Radius for pseudo-core charge for each type ..... 

  - Atom type    1 has pseudo-core radius ..  5.9900
  - Atom type    2 has pseudo-core radius ..  5.9900

 Info on the Q-grid used for form factors in spline form: 
   Number of q-points for radial functions ffspl ..   3001
   Number of q-points for vlspl ...................   3001
   vloc is computed in Reciprocal Space
   model core charge treated in real-space

  XC functional for type 1 is 11
  Pseudo valence available: yes
  XC functional for type 2 is 11
  Pseudo valence available: yes

 symatm: atom number 1 is reached starting at atom
   1  1  1  1  1  1  1  1  1  1  1  1
 symatm: atom number 2 is reached starting at atom
   2  2  2  2  2  2  2  2  2  2  2  2
 symatm: atom number 3 is reached starting at atom
   3  3  3  3  3  3  3  3  3  3  3  3
 symatm: atom number 4 is reached starting at atom
   4  4  4  4  4  4  4  4  4  4  4  4
 wfconv:    10 bands initialized randomly with npw=   499, for ikpt=     1
 wfconv:    10 bands initialized randomly with npw=   508, for ikpt=     2
_setup2: Arith. and geom. avg. npw (full set) are    1011.250    1011.216
 initro: for itypat=  1, take pseudo charge density from pp file
 initro: for itypat=  2, take pseudo charge density from pp file

================================================================================

 getcut: wavevector=  0.0000  0.0000  0.0000  ngfft=  20  20  50
         ecut(hartree)=     20.000   => boxcut(ratio)=   2.03982

 1/G**2 cut-off applied in the following step : cutoff-mode = CRYSTAL

 1/G**2 cut-off applied in the following step : cutoff-mode = CRYSTAL

 1/G**2 cut-off applied in the following step : cutoff-mode = CRYSTAL

 ITER STEP NUMBER     1
 Max number of non-self-consistent loops: 2
 Total charge density [el/Bohr^3]
)     Maximum=    6.3086E-01  at reduced coord.    0.8000    0.4000    0.5200
)     Minimum=    1.2299E-03  at reduced coord.    0.0000    0.0000    0.2400
   Integrated=    1.6000E+01

 1/G**2 cut-off applied in the following step : cutoff-mode = CRYSTAL
 ETOT  1  -26.442047173636    -2.644E+01 6.017E-02 2.076E+02
 scprqt: <Vxc>= -3.6348249E-01 hartree

 Simple mixing update:
  residual square of the potential:    112.80084914509912
{SCF_istep: 1 , Vnl|psi>: 200 , wall_time: '  0.52 [s] '} <<< TIME

 ITER STEP NUMBER     2
 Max number of non-self-consistent loops: 2
 Total charge density [el/Bohr^3]
)     Maximum=    4.9705E-01  at reduced coord.    0.4500    0.8500    0.0000
)     Minimum=    1.9123E-03  at reduced coord.    0.0000    0.0000    0.2400
   Integrated=    1.6000E+01
 ETOT  2  -26.510762701435    -6.872E-02 1.897E-03 8.239E+01
 scprqt: <Vxc>= -3.8347530E-01 hartree

 Pulay update with  1 previous iterations:
 mixing of old trial potential: alpha(m:m-4)=  0.601      0.399
{SCF_istep: 2 , Vnl|psi>: 200 , wall_time: '  0.07 [s] '} <<< TIME

 ITER STEP NUMBER     3
 Total charge density [el/Bohr^3]
)     Maximum=    5.6343E-01  at reduced coord.    0.8000    0.4000    0.5200
)     Minimum=    1.6922E-03  at reduced coord.    0.0000    0.0000    0.2400
   Integrated=    1.6000E+01
 ETOT  3  -26.590012652634    -7.925E-02 4.875E-03 4.759E+00
 scprqt: <Vxc>= -3.7445543E-01 hartree

 Pulay update with  2 previous iterations:
 mixing of old trial potential: alpha(m:m-4)=  0.934      0.128     -0.621E-01
{SCF_istep: 3 , Vnl|psi>: 100 , wall_time: '  0.04 [s] '} <<< TIME

 ITER STEP NUMBER     4
 Total charge density [el/Bohr^3]
)     Maximum=    5.5107E-01  at reduced coord.    0.8000    0.4000    0.5200
)     Minimum=    1.8037E-03  at reduced coord.    0.0000    0.0000    0.2600
   Integrated=    1.6000E+01
 ETOT  4  -26.593733546801    -3.721E-03 1.188E-03 2.103E-02
 scprqt: <Vxc>= -3.7677811E-01 hartree

 Pulay update with  3 previous iterations:
 mixing of old trial potential: alpha(m:m-4)=   1.09     -0.932E-01 -0.549E-02  0.735E-02
{SCF_istep: 4 , Vnl|psi>: 100 , wall_time: '  0.04 [s] '} <<< TIME

 ITER STEP NUMBER     5
 Total charge density [el/Bohr^3]
)     Maximum=    5.5098E-01  at reduced coord.    0.4000    0.8000    0.9800
)     Minimum=    1.8050E-03  at reduced coord.    0.0000    0.0000    0.2400
   Integrated=    1.6000E+01
 ETOT  5  -26.593739154370    -5.608E-06 3.413E-03 1.837E-03
 scprqt: <Vxc>= -3.7679870E-01 hartree

 Pulay update with  4 previous iterations:
 mixing of old trial potential: alpha(m:m-4)=   1.07     -0.528E-01 -0.714E-02 -0.340E-02 -0.225E-02
{SCF_istep: 5 , Vnl|psi>: 100 , wall_time: '  0.04 [s] '} <<< TIME

 ITER STEP NUMBER     6
 Total charge density [el/Bohr^3]
)     Maximum=    5.5090E-01  at reduced coord.    0.8000    0.4000    0.5200
)     Minimum=    1.8077E-03  at reduced coord.    0.0000    0.0000    0.2600
   Integrated=    1.6000E+01
 ETOT  6  -26.593739359305    -2.049E-07 8.731E-04 3.534E-04
 scprqt: <Vxc>= -3.7683349E-01 hartree

 Pulay update with  5 previous iterations:
 mixing of old trial potential: alpha(m:m-4)=  0.627      0.424     -0.516E-01  0.271E-02 -0.993E-03
{SCF_istep: 6 , Vnl|psi>: 100 , wall_time: '  0.04 [s] '} <<< TIME

 ITER STEP NUMBER     7
 Total charge density [el/Bohr^3]
)     Maximum=    5.5084E-01  at reduced coord.    0.4000    0.8000    0.9800
)     Minimum=    1.8077E-03  at reduced coord.    0.0000    0.0000    0.2400
   Integrated=    1.6000E+01
 ETOT  7  -26.593739540251    -1.809E-07 1.925E-03 2.724E-05
 scprqt: <Vxc>= -3.7683206E-01 hartree

 Pulay update with  6 previous iterations:
 mixing of old trial potential: alpha(m:m-4)=  0.894      0.166     -0.512E-01 -0.102E-01  0.198E-02
{SCF_istep: 7 , Vnl|psi>: 100 , wall_time: '  0.04 [s] '} <<< TIME

 ITER STEP NUMBER     8
 Total charge density [el/Bohr^3]
)     Maximum=    5.5083E-01  at reduced coord.    0.8000    0.4000    0.5200
)     Minimum=    1.8078E-03  at reduced coord.    0.0000    0.0000    0.2600
   Integrated=    1.6000E+01
 ETOT  8  -26.593739552309    -1.206E-08 2.999E-04 4.764E-08
 scprqt: <Vxc>= -3.7683087E-01 hartree

 Pulay update with  7 previous iterations:
 mixing of old trial potential: alpha(m:m-4)=   1.08     -0.720E-01 -0.139E-01  0.675E-02 -0.506E-03
{SCF_istep: 8 , Vnl|psi>: 100 , wall_time: '  0.04 [s] '} <<< TIME

 ITER STEP NUMBER     9
 Total charge density [el/Bohr^3]
)     Maximum=    5.5083E-01  at reduced coord.    0.4000    0.8000    0.9800
)     Minimum=    1.8078E-03  at reduced coord.    0.0000    0.0000    0.2400
   Integrated=    1.6000E+01
 ETOT  9  -26.593739552332    -2.274E-11 5.005E-04 4.827E-10
 scprqt: <Vxc>= -3.7683095E-01 hartree

 Pulay update with  7 previous iterations:
 mixing of old trial potential: alpha(m:m-4)=   1.09     -0.822E-01 -0.415E-02 -0.765E-03 -0.361E-03
{SCF_istep: 9 , Vnl|psi>: 100 , wall_time: '  0.04 [s] '} <<< TIME

 ITER STEP NUMBER    10
 Total charge density [el/Bohr^3]
)     Maximum=    5.5083E-01  at reduced coord.    0.8000    0.4000    0.5200
)     Minimum=    1.8078E-03  at reduced coord.    0.0000    0.0000    0.2600
   Integrated=    1.6000E+01
 ETOT 10  -26.593739552333    -5.187E-13 6.225E-05 4.186E-11
 scprqt: <Vxc>= -3.7683095E-01 hartree

 At SCF step   10, etot is converged : 
  for the second time, diff in etot=  5.187E-13 < toldfe=  1.000E-10
 
 -------------------------------------------------------------------------------------------------
 Ekinetic   = :     1.893313E+01 Ha ,    5.151967E+02 eV
 Evext_l    = :    -2.476404E+01 Ha ,   -6.738639E+02 eV
 Evext_nl   = :    -2.108718E+00 Ha ,   -5.738114E+01 eV
 Epsp_core  = :     1.173041E+00 Ha ,    3.192008E+01 eV
 Ehartree   = :     7.890937E+00 Ha ,    2.147233E+02 eV
 Exc_ks     = :    -8.717101E+00 Ha ,   -2.372044E+02 eV
 Enn        = :    -1.900099E+01 Ha ,   -5.170431E+02 eV
 -------------------------------------------------------------------------------------------------
 Etot       = :    -2.659374E+01 Ha ,   -7.236525E+02 eV
 -------------------------------------------------------------------------------------------------

 Cartesian components of stress tensor (hartree/bohr^3)
  sigma(1 1)=  6.40718307E-04  sigma(3 2)=  0.00000000E+00
  sigma(2 2)=  6.40718307E-04  sigma(3 1)=  0.00000000E+00
  sigma(3 3)=  1.42956511E-03  sigma(2 1)=  0.00000000E+00


 fftdatar_write: About to write data to: io_dir_new/hbn_out_DS1_DEN with iomode: IO_MODE_ETSF
- Creating HDf5 file with MPI-IO support: io_dir_new/hbn_out_DS1_DEN.nc
- Opening HDf5 file with MPI-IO support: io_dir_new/hbn_out_DS1_DEN.nc
 IO operation completed. cpu:  0.06 [s] , wall:  0.40 [s] <<< TIME
- Creating HDf5 file with MPI-IO support: io_dir_new/hbn_out_DS1_GSR.nc
 Integrated electronic density in atomic spheres:
 ------------------------------------------------
 Atom  Sphere_radius  Integrated_density
    1        2.00000          3.53027648
    2        2.00000          5.85629443
    3        2.00000          3.53027643
    4        2.00000          5.85629459
================================================================================

 ----iterations are completed or convergence reached----


 === Gap info ===
  >>>> For spin  1
   Minimum direct gap =   4.3396 [eV], located at k-point      :   0.5000  0.0000  0.0000
   Fundamental gap    =   4.3396 [eV], Top of valence bands at :   0.5000  0.0000  0.0000
                                       Bottom of conduction at :   0.5000  0.0000  0.0000
 Mean square residual over all n,k,spin=   31.123E-07; max=  62.247E-06
   0.0000  0.0000  0.0000    1  6.22465E-05 kpt; spin; max resid(k); each band:
  2.78E-15 2.91E-15 2.50E-15 3.42E-15 3.60E-15 3.55E-15 3.29E-15 4.08E-15
  7.22E-15 6.22E-05
   0.5000  0.0000  0.0000    1  3.86232E-14 kpt; spin; max resid(k); each band:
  3.05E-15 3.14E-15 2.24E-15 2.22E-15 2.53E-15 2.53E-15 2.07E-15 2.29E-15
  2.06E-15 3.86E-14
in cg_ncwrite with path: io_dir_new/hbn_out_DS1_WFK.nc
same layout Writing WFK file: io_dir_new/hbn_out_DS1_WFK.nc, with iomode: IO_MODE_ETSF, single writer: F
Using collective IO for the CGs
 collective ncwrite completed. cpu:  0.05 [s] , wall:  0.29 [s] <<< TIME
 prteigrs : about to open file io_dir_new/hbn_out_DS1_EIG
 Fermi (or HOMO) energy (hartree) =   0.11749   Average Vxc (hartree)=  -0.37683
 Eigenvalues (hartree) for nkpt=   2  k points:
 kpt#   1, nband= 10, wtk=  0.25000, kpt=  0.0000  0.0000  0.0000 (reduced coord)
  -0.53378   -0.51958   -0.11213   -0.01909    0.08503    0.08503    0.08575    0.08575
   0.32160    0.53141
 kpt#   2, nband= 10, wtk=  0.75000, kpt=  0.5000  0.0000  0.0000 (reduced coord)
  -0.41165   -0.40813   -0.20436   -0.20156   -0.02458   -0.02097    0.07053    0.11749
   0.27697    0.33972
 Total charge density [el/Bohr^3]
)     Maximum=    5.5083E-01  at reduced coord.    0.8000    0.4000    0.5200
)Next maximum=    5.5083E-01  at reduced coord.    0.6000    0.4000    0.5200
)     Minimum=    1.8078E-03  at reduced coord.    0.0000    0.0000    0.2600
)Next minimum=    1.8078E-03  at reduced coord.    0.0000    0.0000    0.7400
   Integrated=    1.6000E+01

 Cartesian components of stress tensor (hartree/bohr^3)
  sigma(1 1)=  6.40718307E-04  sigma(3 2)=  0.00000000E+00
  sigma(2 2)=  6.40718307E-04  sigma(3 1)=  0.00000000E+00
  sigma(3 3)=  1.42956511E-03  sigma(2 1)=  0.00000000E+00

-Cartesian components of stress tensor (GPa)         [Pressure= -2.6587E+01 GPa]
- sigma(1 1)=  1.88505802E+01  sigma(3 2)=  0.00000000E+00
- sigma(2 2)=  1.88505802E+01  sigma(3 1)=  0.00000000E+00
- sigma(3 3)=  4.20592505E+01  sigma(2 1)=  0.00000000E+00

================================================================================
== DATASET  2 ==================================================================
-   mpi_nproc: 1, omp_nthreads: 1 (-1 if OMP is not activated)


--- !COMMENT
src_file: m_xgScalapack.F90
src_line: 236
message: |
    xgScalapack in auto mode
...

 mkfilename : getwfk/=0, take file _WFK from output of DATASET   1.

 mkfilename : getden/=0, take file _DEN from output of DATASET   1.


 getdim_nloc : deduce lmnmax  =   8, lnmax  =   4,
                      lmnmaxso=   8, lnmaxso=   4.
 Exchange-correlation functional for the present dataset will be:
  GGA: Perdew-Burke-Ernzerhof functional - ixc=11
 Citation for XC functional:
  J.P.Perdew, K.Burke, M.Ernzerhof, PRL 77, 3865 (1996)

 Unit cell volume ucvol=  2.3455553E+02 bohr^3
 Angles (23,13,12)=  9.00000000E+01  9.00000000E+01  1.20000000E+02 degrees

 getcut: wavevector=  0.0000  0.0000  0.0000  ngfft=  20  20  50
         ecut(hartree)=     20.000   => boxcut(ratio)=   2.03982
 symatm: atom number 1 is reached starting at atom
   1  1  1  1  1  1  1  1  1  1  1  1
 symatm: atom number 2 is reached starting at atom
   2  2  2  2  2  2  2  2  2  2  2  2
 symatm: atom number 3 is reached starting at atom
   3  3  3  3  3  3  3  3  3  3  3  3
 symatm: atom number 4 is reached starting at atom
   4  4  4  4  4  4  4  4  4  4  4  4
- File: io_dir_new/hbn_out_DS1_WFK does not exist but found netcdf file with similar name.
- Opening HDf5 file with MPI-IO support: io_dir_new/hbn_out_DS1_WFK.nc
 inwffil: examining the header of disk file: io_dir_new/hbn_out_DS1_WFK.nc

================================================================================

          - hdr_check: checking restart file header for consistency -


          current calculation                           restart file
          -------------------                           ------------

  calculation expects a wf_planewave        |  input file contains a wf_planewave
. ABINIT  code version 9.7.4                |  ABINIT  code version 9.7.4
. date 20220922 bantot       70 natom    4  |  date 20220922 bantot       20 natom    4
  nkpt       7 nsym 12 ngfft  20,  20,  50  |  nkpt       2 nsym 12 ngfft  20,  20,  50
  ntypat  2 ecut_eff  20.0000000            |  ntypat  2 ecut_eff  20.0000000
  usepaw  0                                 |  usepaw  0
  usewvl  0                                 |  usewvl  0
  rprimd:                                   |  rprimd:
     4.7163728   0.0000000   0.0000000      |     4.7163728   0.0000000   0.0000000
    -2.3581864   4.0844987   0.0000000      |    -2.3581864   4.0844987   0.0000000
     0.0000000   0.0000000  12.1758362      |     0.0000000   0.0000000  12.1758362

--- !COMMENT
src_file: m_hdr.F90
src_line: 4198
message: |
    input nkpt=7 not equal disk file nkpt=2
...

  symafm:                                   |  symafm:
    1  1  1  1  1  1  1  1  1  1  1  1      |    1  1  1  1  1  1  1  1  1  1  1  1
  symrel:                                   |  symrel:
    1  0  0  0  1  0  0  0  1               |    1  0  0  0  1  0  0  0  1
    0 -1  0 -1  0  0  0  0 -1               |    0 -1  0 -1  0  0  0  0 -1
   -1 -1  0  1  0  0  0  0 -1               |   -1 -1  0  1  0  0  0  0 -1
   -1  0  0  1  1  0  0  0  1               |   -1  0  0  1  1  0  0  0  1
    0  1  0 -1 -1  0  0  0  1               |    0  1  0 -1 -1  0  0  0  1
    1  1  0  0 -1  0  0  0 -1               |    1  1  0  0 -1  0  0  0 -1
    1  0  0  0  1  0  0  0 -1               |    1  0  0  0  1  0  0  0 -1
    0 -1  0 -1  0  0  0  0  1               |    0 -1  0 -1  0  0  0  0  1
   -1 -1  0  1  0  0  0  0  1               |   -1 -1  0  1  0  0  0  0  1
   -1  0  0  1  1  0  0  0 -1               |   -1  0  0  1  1  0  0  0 -1
    0  1  0 -1 -1  0  0  0 -1               |    0  1  0 -1 -1  0  0  0 -1
    1  1  0  0 -1  0  0  0  1               |    1  1  0  0 -1  0  0  0  1
  typat:                                    |  typat:
    1  2  1  2                              |    1  2  1  2
  so_psp  :                                 |  so_psp  :
    1  1                                    |    1  1

--- !COMMENT
src_file: m_hdr.F90
src_line: 4443
message: |
    input kptrlatt = 6 0 0 0 6 0 0 0 1  /= disk file kptrlatt = 2 0 0 0 2 0 0 0 1
...


--- !WARNING
src_file: m_hdr.F90
src_line: 4467
message: |
    input ival=0 not equal disk file ival=8
...

  tnons:                                    |  tnons:
     0.0000000   0.0000000   0.0000000      |     0.0000000   0.0000000   0.0000000
     0.0000000   0.0000000   0.0000000      |     0.0000000   0.0000000   0.0000000
    -0.0000000   0.0000000   0.0000000      |    -0.0000000   0.0000000   0.0000000
    -0.0000000   0.0000000   0.0000000      |    -0.0000000   0.0000000   0.0000000
     0.0000000   0.0000000   0.0000000      |     0.0000000   0.0000000   0.0000000
     0.0000000   0.0000000   0.0000000      |     0.0000000   0.0000000   0.0000000
     0.0000000   0.0000000   0.0000000      |     0.0000000   0.0000000   0.0000000
     0.0000000   0.0000000   0.0000000      |     0.0000000   0.0000000   0.0000000
    -0.0000000   0.0000000   0.0000000      |    -0.0000000   0.0000000   0.0000000
    -0.0000000   0.0000000   0.0000000      |    -0.0000000   0.0000000   0.0000000
     0.0000000   0.0000000   0.0000000      |     0.0000000   0.0000000   0.0000000
     0.0000000   0.0000000   0.0000000      |     0.0000000   0.0000000   0.0000000
   znucl:                                   |   znucl:
    5.00  7.00                              |        5.00  7.00
  pseudopotential atom type  1:             |  pseudopotential atom type  1:
  pspso   0 pspxc  11                       |  pspso   0 pspxc  11
  pspdat   170503 pspcod    8 zion   3.0    |  pspdat   170503 pspcod    8 zion   3.0
  pseudopotential atom type  2:             |  pseudopotential atom type  2:
  pspso   0 pspxc  11                       |  pspso   0 pspxc  11
  pspdat   170503 pspcod    8 zion   5.0    |  pspdat   170503 pspcod    8 zion   5.0
  xred:                                     |  xred:
     0.6666667   0.3333333   0.0000000      |     0.6666667   0.3333333   0.0000000
    -0.6666667  -0.3333333   0.0000000      |    -0.6666667  -0.3333333   0.0000000
    -0.6666667  -0.3333333   0.5000000      |    -0.6666667  -0.3333333   0.5000000
     0.6666667   0.3333333   0.5000000      |     0.6666667   0.3333333   0.5000000

--- !COMMENT
src_file: m_hdr.F90
src_line: 4741
message: |
    Restart of self-consistent calculation need translated wavefunctions.
...

  Indeed, critical differences between current calculation and
  restart file have been detected in:
        * the number, position, or weight of k-points
        * the format of wavefunctions (istwfk)
================================================================================
-inwffil : will read wavefunctions from disk file io_dir_new/hbn_out_DS1_WFK.nc
 initwf: disk file gives npw= 499 nband= 10 for kpt number= 1
 initwf: 10 bands have been initialized from disk
 initwf: disk file gives npw= 508 nband= 10 for kpt number= 2
 initwf: 10 bands have been initialized from disk
- newkpt: read input wf with ikpt,npw=   1     499, make ikpt,npw=   1     997
- newkpt: read input wf with ikpt,npw=   1     499, make ikpt,npw=   2     996
- newkpt: read input wf with ikpt,npw=   2     508, make ikpt,npw=   3    1004
- newkpt: read input wf with ikpt,npw=   2     508, make ikpt,npw=   4    1016
- newkpt: read input wf with ikpt,npw=   1     499, make ikpt,npw=   5    1011
- newkpt: read input wf with ikpt,npw=   2     508, make ikpt,npw=   6    1004
- newkpt: read input wf with ikpt,npw=   2     508, make ikpt,npw=   7    1005
 About to read data(r) from: io_dir_new/hbn_out_DS1_DEN
- File: io_dir_new/hbn_out_DS1_DEN does not exist but found netcdf file with similar name.

================================================================================

          - hdr_check: checking restart file header for consistency -


          current calculation                           restart file
          -------------------                           ------------

  calculation expects a density             |  input file contains a density
. ABINIT  code version 9.7.4                |  ABINIT  code version 9.7.4
. date 20220922 bantot       70 natom    4  |  date 20220922 bantot       20 natom    4
  nkpt       7 nsym 12 ngfft  20,  20,  50  |  nkpt       2 nsym 12 ngfft  20,  20,  50
  ntypat  2 ecut_eff  20.0000000            |  ntypat  2 ecut_eff  20.0000000
  usepaw  0                                 |  usepaw  0
  usewvl  0                                 |  usewvl  0
  rprimd:                                   |  rprimd:
     4.7163728   0.0000000   0.0000000      |     4.7163728   0.0000000   0.0000000
    -2.3581864   4.0844987   0.0000000      |    -2.3581864   4.0844987   0.0000000
     0.0000000   0.0000000  12.1758362      |     0.0000000   0.0000000  12.1758362
  symafm:                                   |  symafm:
    1  1  1  1  1  1  1  1  1  1  1  1      |    1  1  1  1  1  1  1  1  1  1  1  1
  symrel:                                   |  symrel:
    1  0  0  0  1  0  0  0  1               |    1  0  0  0  1  0  0  0  1
    0 -1  0 -1  0  0  0  0 -1               |    0 -1  0 -1  0  0  0  0 -1
   -1 -1  0  1  0  0  0  0 -1               |   -1 -1  0  1  0  0  0  0 -1
   -1  0  0  1  1  0  0  0  1               |   -1  0  0  1  1  0  0  0  1
    0  1  0 -1 -1  0  0  0  1               |    0  1  0 -1 -1  0  0  0  1
    1  1  0  0 -1  0  0  0 -1               |    1  1  0  0 -1  0  0  0 -1
    1  0  0  0  1  0  0  0 -1               |    1  0  0  0  1  0  0  0 -1
    0 -1  0 -1  0  0  0  0  1               |    0 -1  0 -1  0  0  0  0  1
   -1 -1  0  1  0  0  0  0  1               |   -1 -1  0  1  0  0  0  0  1
   -1  0  0  1  1  0  0  0 -1               |   -1  0  0  1  1  0  0  0 -1
    0  1  0 -1 -1  0  0  0 -1               |    0  1  0 -1 -1  0  0  0 -1
    1  1  0  0 -1  0  0  0  1               |    1  1  0  0 -1  0  0  0  1
  typat:                                    |  typat:
    1  2  1  2                              |    1  2  1  2
  so_psp  :                                 |  so_psp  :
    1  1                                    |    1  1

--- !COMMENT
src_file: m_hdr.F90
src_line: 4443
message: |
    input kptrlatt = 6 0 0 0 6 0 0 0 1  /= disk file kptrlatt = 2 0 0 0 2 0 0 0 1
...


--- !WARNING
src_file: m_hdr.F90
src_line: 4467
message: |
    input ival=0 not equal disk file ival=8
...

  tnons:                                    |  tnons:
     0.0000000   0.0000000   0.0000000      |     0.0000000   0.0000000   0.0000000
     0.0000000   0.0000000   0.0000000      |     0.0000000   0.0000000   0.0000000
    -0.0000000   0.0000000   0.0000000      |    -0.0000000   0.0000000   0.0000000
    -0.0000000   0.0000000   0.0000000      |    -0.0000000   0.0000000   0.0000000
     0.0000000   0.0000000   0.0000000      |     0.0000000   0.0000000   0.0000000
     0.0000000   0.0000000   0.0000000      |     0.0000000   0.0000000   0.0000000
     0.0000000   0.0000000   0.0000000      |     0.0000000   0.0000000   0.0000000
     0.0000000   0.0000000   0.0000000      |     0.0000000   0.0000000   0.0000000
    -0.0000000   0.0000000   0.0000000      |    -0.0000000   0.0000000   0.0000000
    -0.0000000   0.0000000   0.0000000      |    -0.0000000   0.0000000   0.0000000
     0.0000000   0.0000000   0.0000000      |     0.0000000   0.0000000   0.0000000
     0.0000000   0.0000000   0.0000000      |     0.0000000   0.0000000   0.0000000
   znucl:                                   |   znucl:
    5.00  7.00                              |        5.00  7.00
  pseudopotential atom type  1:             |  pseudopotential atom type  1:
  pspso   0 pspxc  11                       |  pspso   0 pspxc  11
  pspdat   170503 pspcod    8 zion   3.0    |  pspdat   170503 pspcod    8 zion   3.0
  pseudopotential atom type  2:             |  pseudopotential atom type  2:
  pspso   0 pspxc  11                       |  pspso   0 pspxc  11
  pspdat   170503 pspcod    8 zion   5.0    |  pspdat   170503 pspcod    8 zion   5.0
  xred:                                     |  xred:
     0.6666667   0.3333333   0.0000000      |     0.6666667   0.3333333   0.0000000
    -0.6666667  -0.3333333   0.0000000      |    -0.6666667  -0.3333333   0.0000000
    -0.6666667  -0.3333333   0.5000000      |    -0.6666667  -0.3333333   0.5000000
     0.6666667   0.3333333   0.5000000      |     0.6666667   0.3333333   0.5000000
 hdr_check:  Density/Potential file is OK for restart of calculation
================================================================================
 read_rhor completed. cpu:  0.01 [s] , wall:  0.01 [s] <<< TIME

================================================================================

 getcut: wavevector=  0.0000  0.0000  0.0000  ngfft=  20  20  50
         ecut(hartree)=     20.000   => boxcut(ratio)=   2.03982
 Max number of non-self-consistent loops: 100
 k-point: [ 1 / 7 ], spin: 1
   Max resid = 6.46630E-15  (exclude nbdbuf bands). One NSCF iteration cpu-time:  0.01 [s] , wall-time:  0.01 [s]
   NSCF loop completed after 1 iterations
 
 -------------------------------------------------------------------------------------------------
 Ekinetic   = :     0.000000E+00 Ha ,    0.000000E+00 eV
 Evext_l    = :     0.000000E+00 Ha ,    0.000000E+00 eV
 Evext_nl   = :     0.000000E+00 Ha ,    0.000000E+00 eV
 Epsp_core  = :     1.173041E+00 Ha ,    3.192008E+01 eV
 Ehartree   = :     0.000000E+00 Ha ,    0.000000E+00 eV
 Exc_ks     = :    -8.717101E+00 Ha ,   -2.372044E+02 eV
 Enn        = :    -1.900099E+01 Ha ,   -5.170431E+02 eV
 -------------------------------------------------------------------------------------------------
 Etot       = :    -2.654505E+01 Ha ,   -7.223274E+02 eV
 -------------------------------------------------------------------------------------------------

 fftdatar_write: About to write data to: io_dir_new/hbn_out_DS2_DEN with iomode: IO_MODE_ETSF
- Creating HDf5 file with MPI-IO support: io_dir_new/hbn_out_DS2_DEN.nc
- Opening HDf5 file with MPI-IO support: io_dir_new/hbn_out_DS2_DEN.nc
 IO operation completed. cpu:  0.02 [s] , wall:  0.41 [s] <<< TIME
- Creating HDf5 file with MPI-IO support: io_dir_new/hbn_out_DS2_GSR.nc
 Integrated electronic density in atomic spheres:
 ------------------------------------------------
 Atom  Sphere_radius  Integrated_density
    1        2.00000          3.53027648
    2        2.00000          5.85629443
    3        2.00000          3.53027643
    4        2.00000          5.85629459
================================================================================

 ----iterations are completed or convergence reached----

 Mean square residual over all n,k,spin=   41.623E-10; max=  98.721E-10
   0.0000  0.0000  0.0000    1  1.10809E-04 kpt; spin; max resid(k); each band:
  4.67E-15 4.81E-15 3.07E-15 4.12E-15 6.21E-15 6.13E-15 6.08E-15 6.47E-15
  5.33E-15 1.11E-04
   0.1667  0.0000  0.0000    1  2.41596E-05 kpt; spin; max resid(k); each band:
  1.87E-09 2.57E-09 8.29E-09 5.71E-09 4.51E-09 7.44E-09 4.05E-09 8.20E-09
  1.39E-08 2.42E-05
   0.3333  0.0000  0.0000    1  9.84113E-09 kpt; spin; max resid(k); each band:
  5.03E-09 4.18E-09 2.25E-09 5.33E-09 9.84E-09 6.17E-09 9.50E-09 2.43E-09
  2.94E-09 4.38E-09
   0.5000  0.0000  0.0000    1  1.82099E-14 kpt; spin; max resid(k); each band:
  5.51E-15 5.59E-15 4.03E-15 4.04E-15 5.15E-15 5.19E-15 4.28E-15 5.36E-15
  1.30E-15 1.82E-14
   0.1667  0.1667  0.0000    1  9.96302E-07 kpt; spin; max resid(k); each band:
  4.55E-09 5.16E-09 9.87E-09 3.89E-09 9.77E-09 9.26E-09 6.93E-09 6.64E-09
  4.09E-08 9.96E-07
   0.3333  0.1667  0.0000    1  8.51597E-09 kpt; spin; max resid(k); each band:
  3.32E-09 3.06E-09 6.77E-09 6.52E-09 7.63E-09 8.52E-09 7.71E-10 1.81E-09
  3.36E-09 5.92E-09
   0.3333  0.3333  0.0000    1  9.85830E-09 kpt; spin; max resid(k); each band:
  9.86E-09 9.65E-09 5.90E-09 3.15E-09 4.78E-09 4.19E-09 7.07E-09 6.67E-09
  6.09E-09 7.47E-09
in cg_ncwrite with path: io_dir_new/hbn_out_DS2_WFK.nc
same layout Writing WFK file: io_dir_new/hbn_out_DS2_WFK.nc, with iomode: IO_MODE_ETSF, single writer: F
Using collective IO for the CGs
 collective ncwrite completed. cpu:  0.07 [s] , wall:  0.40 [s] <<< TIME
Writing KB form factors to: io_dir_new/hbn_out_DS2_WFK.nc
- Opening HDf5 file with MPI-IO support: io_dir_new/hbn_out_DS2_WFK.nc
 prteigrs : about to open file io_dir_new/hbn_out_DS2_EIG
 Eigenvalues (hartree) for nkpt=   7  k points:
 kpt#   1, nband= 10, wtk=  0.02778, kpt=  0.0000  0.0000  0.0000 (reduced coord)
  -0.53378   -0.51958   -0.11213   -0.01909    0.08503    0.08503    0.08575    0.08575
   0.32160    0.53124
 kpt#   2, nband= 10, wtk=  0.16667, kpt=  0.1667  0.0000  0.0000 (reduced coord)
  -0.51345   -0.50029   -0.08397    0.00594    0.00841    0.01115    0.04990    0.05099
   0.35523    0.50809
 kpt#   3, nband= 10, wtk=  0.16667, kpt=  0.3333  0.0000  0.0000 (reduced coord)
  -0.45845   -0.44842   -0.12835   -0.12432   -0.00565   -0.00307   -0.00012    0.07201
   0.37838    0.41986
 kpt#   4, nband= 10, wtk=  0.08333, kpt=  0.5000  0.0000  0.0000 (reduced coord)
  -0.41165   -0.40813   -0.20436   -0.20156   -0.02458   -0.02097    0.07053    0.11749
   0.27697    0.33972
 kpt#   5, nband= 10, wtk=  0.16667, kpt=  0.1667  0.1667  0.0000 (reduced coord)
  -0.47536   -0.46440   -0.07566   -0.07408   -0.03072   -0.01626   -0.01314    0.05195
   0.41488    0.44826
 kpt#   6, nband= 10, wtk=  0.33333, kpt=  0.3333  0.1667  0.0000 (reduced coord)
  -0.41637   -0.41027   -0.17327   -0.16968   -0.06898   -0.06572    0.06054    0.11764
   0.31152    0.35445
 kpt#   7, nband= 10, wtk=  0.05556, kpt=  0.3333  0.3333  0.0000 (reduced coord)
  -0.38732   -0.38732   -0.17058   -0.16163   -0.13783   -0.13783    0.12729    0.12729
   0.30361    0.30361
 Total charge density [el/Bohr^3]
)     Maximum=    5.5083E-01  at reduced coord.    0.8000    0.4000    0.5200
)Next maximum=    5.5083E-01  at reduced coord.    0.6000    0.4000    0.5200
)     Minimum=    1.8078E-03  at reduced coord.    0.0000    0.0000    0.2600
)Next minimum=    1.8078E-03  at reduced coord.    0.0000    0.0000    0.7400
   Integrated=    1.6000E+01

================================================================================
== DATASET  3 ==================================================================
-   mpi_nproc: 1, omp_nthreads: 1 (-1 if OMP is not activated)


--- !COMMENT
src_file: m_xgScalapack.F90
src_line: 236
message: |
    xgScalapack in auto mode
...

 mkfilename : getwfk/=0, take file _WFK from output of DATASET   1.


 getdim_nloc : deduce lmnmax  =   8, lnmax  =   4,
                      lmnmaxso=   8, lnmaxso=   4.
 Exchange-correlation functional for the present dataset will be:
  GGA: Perdew-Burke-Ernzerhof functional - ixc=11
 Citation for XC functional:
  J.P.Perdew, K.Burke, M.Ernzerhof, PRL 77, 3865 (1996)

 Unit cell volume ucvol=  2.3455553E+02 bohr^3
 Angles (23,13,12)=  9.00000000E+01  9.00000000E+01  1.20000000E+02 degrees
 setup1 : take into account q-point for computing boxcut.

 getcut: wavevector=  0.0000  0.0000  0.0000  ngfft=  20  20  50
         ecut(hartree)=     20.000   => boxcut(ratio)=   2.03982
- File: io_dir_new/hbn_out_DS1_WFK does not exist but found netcdf file with similar name.

 respfn : eigen0 array
 symatm: atom number 1 is reached starting at atom
   1  1  1  1  1  1  1  1  1  1  1  1
 symatm: atom number 2 is reached starting at atom
   2  2  2  2  2  2  2  2  2  2  2  2
 symatm: atom number 3 is reached starting at atom
   3  3  3  3  3  3  3  3  3  3  3  3
 symatm: atom number 4 is reached starting at atom
   4  4  4  4  4  4  4  4  4  4  4  4

 getcut: wavevector=  0.0000  0.0000  0.0000  ngfft=  20  20  50
         ecut(hartree)=     20.000   => boxcut(ratio)=   2.03982
 mkrho: echo density (plane-wave part only)
 Total charge density [el/Bohr^3]
)     Maximum=    5.5083E-01  at reduced coord.    0.8000    0.4000    0.5200
)     Minimum=    1.8078E-03  at reduced coord.    0.0000    0.0000    0.2600
   Integrated=    1.6000E+01

 ==>  initialize data related to q vector <== 

 respfn : the norm of the phonon wavelength (as input) was small (<1.d-7).
  q has been set exactly to (0 0 0)
 The list of irreducible perturbations for this q vector is:
    1)    idir= 1    ipert=   5
    2)    idir= 2    ipert=   5
    3)    idir= 3    ipert=   5

================================================================================
 Real(R)+Recip(G) space primitive vectors, cartesian coordinates (Bohr,Bohr^-1):
 R(1)=  4.7163728  0.0000000  0.0000000  G(1)=  0.2120273  0.1224140  0.0000000
 R(2)= -2.3581864  4.0844987  0.0000000  G(2)=  0.0000000  0.2448281  0.0000000
 R(3)=  0.0000000  0.0000000 12.1758362  G(3)=  0.0000000  0.0000000  0.0821299
 Unit cell volume ucvol=  2.3455553E+02 bohr^3
 Unit cell volume ucvol=  2.3455553E+02 bohr^3
 Angles (23,13,12)=  9.00000000E+01  9.00000000E+01  1.20000000E+02 degrees
 Angles (23,13,12)=  9.00000000E+01  9.00000000E+01  1.20000000E+02 degrees

 getcut: wavevector=  0.0000  0.0000  0.0000  ngfft=  20  20  50
         ecut(hartree)=     20.000   => boxcut(ratio)=   2.03982

--------------------------------------------------------------------------------
 Perturbation wavevector (in red.coord.)   0.000000  0.000000  0.000000
 Perturbation : derivative vs k along direction   1

 dfpt_looppert : COMMENT -
  In a d/dk calculation, iscf is set to -3 automatically.
 littlegroup_pert: only one element in the set of symmetries for this perturbation:
   1   0   0   0   1   0   0   0   1
 symatm: atom number 1 is reached starting at atom
   1
 symatm: atom number 2 is reached starting at atom
   2
 symatm: atom number 3 is reached starting at atom
   3
 symatm: atom number 4 is reached starting at atom
   4
 symkpt : not enough symmetry to change the number of k points.
 getmpw: optimal value of mpw= 1016
 Memory required for psi0_k, psi0_kq psi1_kq: 1.7 [Mb] <<< MEM
- File: io_dir_new/hbn_out_DS1_WFK does not exist but found netcdf file with similar name.
 getmpw: optimal value of mpw= 1016
 qpt is Gamma, psi_k+q initialized from psi_k in memory
 Initialisation of the first-order wave-functions :
  ireadwf=   0

 getcut: wavevector=  0.0000  0.0000  0.0000  ngfft=  20  20  50
         ecut(hartree)=     20.000   => boxcut(ratio)=   2.03982
-ETOT  1  -52.369467750696     -5.237E+01 5.820E-01 0.000E+00
 dfpt_scfcv: previous iteration took  0.10 [s]
 ETOT  2  -52.452558005338     -8.309E-02 2.067E-03 0.000E+00
 dfpt_scfcv: previous iteration took  0.09 [s]
 ETOT  3  -52.452877230781     -3.192E-04 9.954E-05 0.000E+00
 dfpt_scfcv: previous iteration took  0.09 [s]
 ETOT  4  -52.452879043156     -1.812E-06 4.078E-06 0.000E+00
 dfpt_scfcv: previous iteration took  0.09 [s]
 ETOT  5  -52.452879054763     -1.161E-08 3.456E-07 0.000E+00
 dfpt_scfcv: previous iteration took  0.09 [s]
 ETOT  6  -52.452879054846     -8.225E-11 5.422E-08 0.000E+00
 dfpt_scfcv: previous iteration took  0.09 [s]
 ETOT  7  -52.452879054846     -7.319E-13 2.027E-09 0.000E+00
 dfpt_scfcv: previous iteration took  0.09 [s]
 ETOT  8  -52.452879054846      2.274E-13 8.168E-10 0.000E+00
 dfpt_scfcv: previous iteration took  0.08 [s]
 ETOT  9  -52.452879054846     -2.345E-13 3.488E-11 0.000E+00
 dfpt_scfcv: previous iteration took  0.08 [s]
 ETOT 10  -52.452879054846      4.974E-14 1.356E-11 0.000E+00
 dfpt_scfcv: previous iteration took  0.06 [s]
 ETOT 11  -52.452879054846     -2.842E-14 6.326E-13 0.000E+00
 dfpt_scfcv: previous iteration took  0.06 [s]
 ETOT 12  -52.452879054846      1.421E-14 2.340E-13 0.000E+00
 dfpt_scfcv: previous iteration took  0.05 [s]
 ETOT 13  -52.452879054846     -1.421E-14 1.147E-14 0.000E+00
 dfpt_scfcv: previous iteration took  0.06 [s]
 ETOT 14  -52.452879054846      1.421E-14 4.092E-15 0.000E+00
 dfpt_scfcv: previous iteration took  0.05 [s]
 ETOT 15  -52.452879054846      0.000E+00 2.064E-16 0.000E+00
 dfpt_scfcv: previous iteration took  0.05 [s]
 ETOT 16  -52.452879054846      0.000E+00 7.196E-17 0.000E+00
 dfpt_scfcv: previous iteration took  0.05 [s]
 ETOT 17  -52.452879054846     -7.105E-15 3.768E-18 0.000E+00
 dfpt_scfcv: previous iteration took  0.05 [s]
 ETOT 18  -52.452879054846      7.105E-15 1.265E-18 0.000E+00
 dfpt_scfcv: previous iteration took  0.05 [s]
 ETOT 19  -52.452879054846     -7.105E-15 1.081E-19 0.000E+00
 dfpt_scfcv: previous iteration took  0.05 [s]
 ETOT 20  -52.452879054846      0.000E+00 2.844E-20 0.000E+00
 dfpt_scfcv: previous iteration took  0.05 [s]
 ETOT 21  -52.452879054846      0.000E+00 3.798E-21 0.000E+00
 dfpt_scfcv: previous iteration took  0.05 [s]
 ETOT 22  -52.452879054846     -1.421E-14 6.493E-22 0.000E+00
 dfpt_scfcv: previous iteration took  0.05 [s]
 ETOT 23  -52.452879054846      0.000E+00 9.345E-23 0.000E+00

 At SCF step   23   max residual=  9.34E-23 < tolwfr=  1.00E-22 =>converged.

 fftdatar_write: About to write data to: io_dir_new/hbn_out_DS3_DEN13 with iomode: IO_MODE_ETSF
- Creating HDf5 file with MPI-IO support: io_dir_new/hbn_out_DS3_DEN13.nc
- Opening HDf5 file with MPI-IO support: io_dir_new/hbn_out_DS3_DEN13.nc
 IO operation completed. cpu:  0.03 [s] , wall:  0.30 [s] <<< TIME

 fftdatar_write: About to write data to: io_dir_new/hbn_out_DS3_POT13 with iomode: IO_MODE_ETSF
- Creating HDf5 file with MPI-IO support: io_dir_new/hbn_out_DS3_POT13.nc
- Opening HDf5 file with MPI-IO support: io_dir_new/hbn_out_DS3_POT13.nc
 IO operation completed. cpu:  0.04 [s] , wall:  0.30 [s] <<< TIME
- Opening HDf5 file with MPI-IO support: io_dir_new/hbn_out_DS3_POT13.nc
================================================================================

 ----iterations are completed or convergence reached----

 Mean square residual over all n,k,spin=   58.186E-24; max=  93.449E-24
   0.0000  0.0000  0.0000    1  9.24480E-23 kpt; spin; max resid(k); each band:
  9.24E-23 7.23E-23 3.74E-23 2.39E-23 8.83E-23 6.36E-23 8.25E-23 5.72E-23
  4.60E-23
   0.5000  0.0000  0.0000    1  8.28675E-23 kpt; spin; max resid(k); each band:
  5.14E-23 3.03E-23 4.13E-23 4.35E-23 8.29E-23 6.49E-23 5.89E-23 3.85E-23
  1.69E-23
   0.0000  0.5000  0.0000    1  9.34488E-23 kpt; spin; max resid(k); each band:
  6.01E-23 5.41E-23 2.64E-23 4.80E-23 5.18E-23 6.52E-23 8.21E-23 7.00E-23
  9.34E-23
   0.5000  0.5000  0.0000    1  9.34445E-23 kpt; spin; max resid(k); each band:
  6.01E-23 5.41E-23 2.64E-23 4.80E-23 5.18E-23 6.52E-23 8.21E-23 7.00E-23
  9.34E-23
 MY_KPT_BANDS part of WFK written to file. completed. cpu:  0.01 [s] , wall:  0.14 [s] <<< TIME
- Creating HDf5 file with MPI-IO support: io_dir_new/hbn_out_DS3_EVK.nc
 dfpt_looppert : ek2=    7.5723765085E+01
          f-sum rule ratio=    1.4129145488E+00

 Eight components of 2nd-order total energy (hartree) are
 1,2,3: 0th-order hamiltonian combined with 1st-order wavefunctions
     kin0=   1.23472830E+02 eigvalue=  -3.63323230E+00  local=  -7.54939443E+01
 4,5,6: 1st-order hamiltonian combined with 1st and 0th-order wfs
     kin1=  -1.06991209E+02  Hartree=   0.00000000E+00     xc=   0.00000000E+00
 7,8,9: eventually, occupation + non-local contributions
    edocc=   6.97169352E+00     enl0=   1.13553234E+00   enl1=   2.08545127E+00
 1-9 gives the relaxation energy (to be shifted if some occ is /=2.0)
   erelax=  -5.24528791E+01
  No Ewald or frozen-wf contrib.: the relaxation energy is the total one
 2DEtotal=   -0.5245287905E+02 Ha. Also 2DEtotal=   -0.142731542652E+04 eV
    (  non-var. 2DEtotal :   -5.2452879055E+01 Ha)

--------------------------------------------------------------------------------
 Perturbation wavevector (in red.coord.)   0.000000  0.000000  0.000000
 Perturbation : derivative vs k along direction   2
 littlegroup_pert: only one element in the set of symmetries for this perturbation:
   1   0   0   0   1   0   0   0   1
 symatm: atom number 1 is reached starting at atom
   1
 symatm: atom number 2 is reached starting at atom
   2
 symatm: atom number 3 is reached starting at atom
   3
 symatm: atom number 4 is reached starting at atom
   4
 symkpt : not enough symmetry to change the number of k points.
 getmpw: optimal value of mpw= 1016
 Memory required for psi0_k, psi0_kq psi1_kq: 1.7 [Mb] <<< MEM
- File: io_dir_new/hbn_out_DS1_WFK does not exist but found netcdf file with similar name.
 getmpw: optimal value of mpw= 1016
 qpt is Gamma, psi_k+q initialized from psi_k in memory
 Initialisation of the first-order wave-functions :
  ireadwf=   0

 getcut: wavevector=  0.0000  0.0000  0.0000  ngfft=  20  20  50
         ecut(hartree)=     20.000   => boxcut(ratio)=   2.03982
-ETOT  1  -52.369467897143     -5.237E+01 5.820E-01 0.000E+00
 dfpt_scfcv: previous iteration took  0.10 [s]
 ETOT  2  -52.452557709788     -8.309E-02 2.067E-03 0.000E+00
 dfpt_scfcv: previous iteration took  0.09 [s]
 ETOT  3  -52.452876932580     -3.192E-04 9.954E-05 0.000E+00
 dfpt_scfcv: previous iteration took  0.09 [s]
 ETOT  4  -52.452878744942     -1.812E-06 4.078E-06 0.000E+00
 dfpt_scfcv: previous iteration took  0.09 [s]
 ETOT  5  -52.452878756550     -1.161E-08 3.456E-07 0.000E+00
 dfpt_scfcv: previous iteration took  0.09 [s]
 ETOT  6  -52.452878756632     -8.210E-11 5.422E-08 0.000E+00
 dfpt_scfcv: previous iteration took  0.09 [s]
 ETOT  7  -52.452878756633     -6.679E-13 2.136E-09 0.000E+00
 dfpt_scfcv: previous iteration took  0.09 [s]
 ETOT  8  -52.452878756633     -4.974E-14 8.168E-10 0.000E+00
 dfpt_scfcv: previous iteration took  0.08 [s]
 ETOT  9  -52.452878756633     -1.350E-13 3.741E-11 0.000E+00
 dfpt_scfcv: previous iteration took  0.08 [s]
 ETOT 10  -52.452878756633      7.105E-15 1.356E-11 0.000E+00
 dfpt_scfcv: previous iteration took  0.06 [s]
 ETOT 11  -52.452878756633      7.105E-14 6.873E-13 0.000E+00
 dfpt_scfcv: previous iteration took  0.06 [s]
 ETOT 12  -52.452878756633      0.000E+00 2.352E-13 0.000E+00
 dfpt_scfcv: previous iteration took  0.05 [s]
 ETOT 13  -52.452878756633     -7.105E-15 1.263E-14 0.000E+00
 dfpt_scfcv: previous iteration took  0.05 [s]
 ETOT 14  -52.452878756633      0.000E+00 4.165E-15 0.000E+00
 dfpt_scfcv: previous iteration took  0.05 [s]
 ETOT 15  -52.452878756633      0.000E+00 2.307E-16 0.000E+00
 dfpt_scfcv: previous iteration took  0.05 [s]
 ETOT 16  -52.452878756633      7.105E-15 7.433E-17 0.000E+00
 dfpt_scfcv: previous iteration took  0.05 [s]
 ETOT 17  -52.452878756633     -7.105E-15 4.243E-18 0.000E+00
 dfpt_scfcv: previous iteration took  0.05 [s]
 ETOT 18  -52.452878756633      2.132E-14 1.337E-18 0.000E+00
 dfpt_scfcv: previous iteration took  0.05 [s]
 ETOT 19  -52.452878756633      0.000E+00 1.099E-19 0.000E+00
 dfpt_scfcv: previous iteration took  0.05 [s]
 ETOT 20  -52.452878756633     -2.842E-14 3.069E-20 0.000E+00
 dfpt_scfcv: previous iteration took  0.05 [s]
 ETOT 21  -52.452878756633      2.842E-14 4.262E-21 0.000E+00
 dfpt_scfcv: previous iteration took  0.05 [s]
 ETOT 22  -52.452878756633     -2.842E-14 7.211E-22 0.000E+00
 dfpt_scfcv: previous iteration took  0.05 [s]
 ETOT 23  -52.452878756633      2.842E-14 9.848E-23 0.000E+00

 At SCF step   23   max residual=  9.85E-23 < tolwfr=  1.00E-22 =>converged.

 fftdatar_write: About to write data to: io_dir_new/hbn_out_DS3_DEN14 with iomode: IO_MODE_ETSF
- Creating HDf5 file with MPI-IO support: io_dir_new/hbn_out_DS3_DEN14.nc
- Opening HDf5 file with MPI-IO support: io_dir_new/hbn_out_DS3_DEN14.nc
 IO operation completed. cpu:  0.04 [s] , wall:  0.41 [s] <<< TIME

 fftdatar_write: About to write data to: io_dir_new/hbn_out_DS3_POT14 with iomode: IO_MODE_ETSF
- Creating HDf5 file with MPI-IO support: io_dir_new/hbn_out_DS3_POT14.nc
- Opening HDf5 file with MPI-IO support: io_dir_new/hbn_out_DS3_POT14.nc
 IO operation completed. cpu:  0.04 [s] , wall:  0.33 [s] <<< TIME
- Opening HDf5 file with MPI-IO support: io_dir_new/hbn_out_DS3_POT14.nc
================================================================================

 ----iterations are completed or convergence reached----

 Mean square residual over all n,k,spin=   57.961E-24; max=  98.479E-24
   0.0000  0.0000  0.0000    1  8.83025E-23 kpt; spin; max resid(k); each band:
  8.40E-23 7.09E-23 8.17E-23 1.54E-23 8.83E-23 6.36E-23 8.25E-23 5.72E-23
  1.06E-23
   0.5000  0.0000  0.0000    1  9.34484E-23 kpt; spin; max resid(k); each band:
  6.01E-23 5.41E-23 2.64E-23 4.80E-23 5.18E-23 6.52E-23 8.22E-23 7.00E-23
  9.34E-23
   0.0000  0.5000  0.0000    1  8.28716E-23 kpt; spin; max resid(k); each band:
  5.14E-23 3.03E-23 4.13E-23 4.35E-23 8.29E-23 6.49E-23 5.89E-23 3.85E-23
  1.69E-23
   0.5000  0.5000  0.0000    1  9.84790E-23 kpt; spin; max resid(k); each band:
  6.01E-23 5.41E-23 2.64E-23 4.80E-23 5.18E-23 6.52E-23 8.13E-23 6.73E-23
  9.85E-23
 MY_KPT_BANDS part of WFK written to file. completed. cpu:  0.02 [s] , wall:  0.12 [s] <<< TIME
- Creating HDf5 file with MPI-IO support: io_dir_new/hbn_out_DS3_EVK.nc
 dfpt_looppert : ek2=    7.5723765085E+01
          f-sum rule ratio=    1.4129145227E+00

 Eight components of 2nd-order total energy (hartree) are
 1,2,3: 0th-order hamiltonian combined with 1st-order wavefunctions
     kin0=   1.23472832E+02 eigvalue=  -3.63323268E+00  local=  -7.54939465E+01
 4,5,6: 1st-order hamiltonian combined with 1st and 0th-order wfs
     kin1=  -1.06991207E+02  Hartree=   0.00000000E+00     xc=   0.00000000E+00
 7,8,9: eventually, occupation + non-local contributions
    edocc=   6.97169356E+00     enl0=   1.13553223E+00   enl1=   2.08544989E+00
 1-9 gives the relaxation energy (to be shifted if some occ is /=2.0)
   erelax=  -5.24528788E+01
  No Ewald or frozen-wf contrib.: the relaxation energy is the total one
 2DEtotal=   -0.5245287876E+02 Ha. Also 2DEtotal=   -0.142731541841E+04 eV
    (  non-var. 2DEtotal :   -5.2452878757E+01 Ha)

--------------------------------------------------------------------------------
 Perturbation wavevector (in red.coord.)   0.000000  0.000000  0.000000
 Perturbation : derivative vs k along direction   3
 littlegroup_pert: only one element in the set of symmetries for this perturbation:
   1   0   0   0   1   0   0   0   1
 symatm: atom number 1 is reached starting at atom
   1
 symatm: atom number 2 is reached starting at atom
   2
 symatm: atom number 3 is reached starting at atom
   3
 symatm: atom number 4 is reached starting at atom
   4
 symkpt : not enough symmetry to change the number of k points.
 getmpw: optimal value of mpw= 1016
 Memory required for psi0_k, psi0_kq psi1_kq: 1.7 [Mb] <<< MEM
- File: io_dir_new/hbn_out_DS1_WFK does not exist but found netcdf file with similar name.
 getmpw: optimal value of mpw= 1016
 qpt is Gamma, psi_k+q initialized from psi_k in memory
 Initialisation of the first-order wave-functions :
  ireadwf=   0

 getcut: wavevector=  0.0000  0.0000  0.0000  ngfft=  20  20  50
         ecut(hartree)=     20.000   => boxcut(ratio)=   2.03982
-ETOT  1  -4.3751168242763     -4.375E+00 9.507E-03 0.000E+00
 dfpt_scfcv: previous iteration took  0.09 [s]
 ETOT  2  -4.3785822008554     -3.465E-03 1.154E-04 0.000E+00
 dfpt_scfcv: previous iteration took  0.09 [s]
 ETOT  3  -4.3785953343808     -1.313E-05 3.968E-07 0.000E+00
 dfpt_scfcv: previous iteration took  0.09 [s]
 ETOT  4  -4.3785953933292     -5.895E-08 1.913E-09 0.000E+00
 dfpt_scfcv: previous iteration took  0.08 [s]
 ETOT  5  -4.3785953936070     -2.778E-10 2.629E-11 0.000E+00
 dfpt_scfcv: previous iteration took  0.09 [s]
 ETOT  6  -4.3785953936083     -1.326E-12 7.390E-14 0.000E+00
 dfpt_scfcv: previous iteration took  0.09 [s]
 ETOT  7  -4.3785953936083      4.441E-15 1.993E-15 0.000E+00
 dfpt_scfcv: previous iteration took  0.07 [s]
 ETOT  8  -4.3785953936083     -1.776E-15 5.612E-18 0.000E+00
[...]
 1-9 gives the relaxation energy (to be shifted if some occ is /=2.0)
   erelax=  -7.52595168E+02
 10,11,12 Non-relaxation  contributions : frozen-wavefunctions and Ewald
 fr.local=   1.53718156E+02 fr.nonlo=   5.70585046E+02  Ewald=   4.43379401E+01
 dfpt_prtene : non-relax=    7.686411E+02
 13,14 Frozen wf xc core corrections (1) and (2)
 frxc 1  =  -2.72705981E+01  frxc 2 =   1.97136409E+01
 Resulting in :
 2DEtotal=    0.8489016855E+01 Ha. Also 2DEtotal=    0.230997896235E+03 eV
    (2DErelax=   -7.5259516829E+02 Ha. 2DEnonrelax=    7.6108418514E+02 Ha)
    (  non-var. 2DEtotal :    8.4890156720E+00 Ha)


--------------------------------------------------------------------------------
 Perturbation wavevector (in red.coord.)   0.500000  0.000000  0.000000
 Perturbation : displacement of atom   4   along direction   3
 littlegroup_pert: found     2 symmetries that leave the perturbation invariant:
   1   0   0   0   1   0   0   0   1
   1   1   0   0  -1   0   0   0   1
 symatm: atom number 1 is reached starting at atom
   1  1
 symatm: atom number 2 is reached starting at atom
   2  2
 symatm: atom number 3 is reached starting at atom
   3  3
 symatm: atom number 4 is reached starting at atom
   4  4
 symkpt : the number of k-points, thanks to the symmetries,
 is reduced to     3 .
 getmpw: optimal value of mpw= 1016
 Memory required for psi0_k, psi0_kq psi1_kq: 1.3 [Mb] <<< MEM
- File: io_dir_new/hbn_out_DS1_WFK does not exist but found netcdf file with similar name.
 getmpw: optimal value of mpw= 1016
- File: io_dir_new/hbn_out_DS1_WFK does not exist but found netcdf file with similar name.
 Initialisation of the first-order wave-functions :
  ireadwf=   0
 Initializing rhor1 from valence densities taken from pseudopotential files

 getcut: wavevector=  0.0000  0.0000  0.0000  ngfft=  20  20  50
         ecut(hartree)=     20.000   => boxcut(ratio)=   2.03982

 ITER STEP NUMBER     1
-ETOT  1   8.9200094473849     -5.018E+03 4.611E+00 2.630E+04

 Simple mixing update:
  residual square of the potential:    17604.338697382744
 dfpt_scfcv: previous iteration took  0.09 [s]

 ITER STEP NUMBER     2
 ETOT  2  -3.9467871663041     -1.287E+01 1.913E+00 3.565E+02

 Pulay update with  1 previous iterations:
 mixing of old trial potential: alpha(m:m-4)=  0.942      0.576E-01
 dfpt_scfcv: previous iteration took  0.10 [s]

 ITER STEP NUMBER     3
 ETOT  3  -4.4309273565327     -4.841E-01 1.714E-01 5.278E+01

 Pulay update with  2 previous iterations:
 mixing of old trial potential: alpha(m:m-4)=  0.842      0.170     -0.119E-01
 dfpt_scfcv: previous iteration took  0.10 [s]

 ITER STEP NUMBER     4
 ETOT  4  -4.4692248740380     -3.830E-02 3.882E-01 1.322E+00

 Pulay update with  3 previous iterations:
 mixing of old trial potential: alpha(m:m-4)=   1.32     -0.258     -0.588E-01  0.116E-02
 dfpt_scfcv: previous iteration took  0.10 [s]

 ITER STEP NUMBER     5
 ETOT  5  -4.4695355970784     -3.107E-04 2.170E-02 1.211E-02

 Pulay update with  4 previous iterations:
 mixing of old trial potential: alpha(m:m-4)=   1.20     -0.245      0.354E-01  0.740E-02 -0.137E-03
 dfpt_scfcv: previous iteration took  0.10 [s]

 ITER STEP NUMBER     6
 ETOT  6  -4.4695376820132     -2.085E-06 7.471E-02 1.207E-04

 Pulay update with  5 previous iterations:
 mixing of old trial potential: alpha(m:m-4)=   1.11     -0.125      0.120E-01 -0.114E-02 -0.237E-03
 dfpt_scfcv: previous iteration took  0.10 [s]

 ITER STEP NUMBER     7
 ETOT  7  -4.4695377033045     -2.129E-08 4.424E-03 2.901E-06

 Pulay update with  6 previous iterations:
 mixing of old trial potential: alpha(m:m-4)=   1.10     -0.965E-01 -0.502E-02  0.197E-02 -0.299E-03
 dfpt_scfcv: previous iteration took  0.10 [s]

 ITER STEP NUMBER     8
 ETOT  8  -4.4695377044450     -1.141E-09 1.566E-02 3.427E-07

 Pulay update with  7 previous iterations:
 mixing of old trial potential: alpha(m:m-4)=  0.909      0.146     -0.592E-01  0.440E-02 -0.222E-03
 dfpt_scfcv: previous iteration took  0.10 [s]

 ITER STEP NUMBER     9
 ETOT  9  -4.4695377046742     -2.292E-10 1.013E-03 7.487E-09

 Pulay update with  7 previous iterations:
 mixing of old trial potential: alpha(m:m-4)=   1.14     -0.103     -0.467E-01  0.664E-02 -0.358E-03
 dfpt_scfcv: previous iteration took  0.10 [s]

 ITER STEP NUMBER    10
 ETOT 10  -4.4695377046369      3.729E-11 3.120E-03 7.251E-10

 Pulay update with  7 previous iterations:
 mixing of old trial potential: alpha(m:m-4)=  0.815      0.236     -0.418E-01 -0.113E-01  0.234E-02
 dfpt_scfcv: previous iteration took  0.09 [s]

 ITER STEP NUMBER    11
 ETOT 11  -4.4695377046287      8.185E-12 4.147E-04 2.544E-10

 At SCF step   11, etot is converged : 
  for the second time, diff in etot=  8.185E-12 < toldfe=  1.000E-10

 fftdatar_write: About to write data to: io_dir_new/hbn_out_DS5_DEN12 with iomode: IO_MODE_ETSF
- Creating HDf5 file with MPI-IO support: io_dir_new/hbn_out_DS5_DEN12.nc
- Opening HDf5 file with MPI-IO support: io_dir_new/hbn_out_DS5_DEN12.nc
 IO operation completed. cpu:  0.04 [s] , wall:  0.32 [s] <<< TIME

 fftdatar_write: About to write data to: io_dir_new/hbn_out_DS5_POT12 with iomode: IO_MODE_ETSF
- Creating HDf5 file with MPI-IO support: io_dir_new/hbn_out_DS5_POT12.nc
- Opening HDf5 file with MPI-IO support: io_dir_new/hbn_out_DS5_POT12.nc
 IO operation completed. cpu:  0.02 [s] , wall:  0.35 [s] <<< TIME
- Opening HDf5 file with MPI-IO support: io_dir_new/hbn_out_DS5_POT12.nc
================================================================================

 ----iterations are completed or convergence reached----

 Mean square residual over all n,k,spin=   15.357E-06; max=  41.465E-05
   0.0000  0.0000  0.0000    1  4.14651E-04 kpt; spin; max resid(k); each band:
  1.94E-16 1.67E-16 1.36E-16 2.65E-15 8.34E-16 7.97E-16 8.30E-16 7.75E-16
  4.15E-04
   0.5000  0.0000  0.0000    1  6.40628E-15 kpt; spin; max resid(k); each band:
  8.33E-17 2.78E-17 4.12E-16 3.75E-16 1.65E-16 1.37E-16 2.61E-15 6.41E-15
  1.52E-16
   0.0000  0.5000  0.0000    1  3.81822E-15 kpt; spin; max resid(k); each band:
  2.71E-16 3.03E-16 5.43E-16 5.39E-16 6.24E-16 6.69E-16 3.82E-15 3.59E-16
  3.24E-16

 Thirteen components of 2nd-order total energy (hartree) are
 1,2,3: 0th-order hamiltonian combined with 1st-order wavefunctions
     kin0=   5.17649555E+03 eigvalue=  -1.95497115E+01  local=  -2.02936191E+03
 4,5,6: 1st-order hamiltonian combined with 1st and 0th-order wfs
 loc psp =  -2.64328756E+03  Hartree=   7.42725169E+02     xc=  -2.15421618E+02
 note that "loc psp" includes a xc core correction that could be resolved
 7,8,9: eventually, occupation + non-local contributions
    edocc=   4.76335790E+01     enl0=   1.32935222E+03   enl1=  -7.42045914E+03
 1-9 gives the relaxation energy (to be shifted if some occ is /=2.0)
   erelax=  -5.03187342E+03
 10,11,12 Non-relaxation  contributions : frozen-wavefunctions and Ewald
 fr.local=   1.57518167E+03 fr.nonlo=   3.81080175E+03  Ewald=  -3.10204962E+02
 dfpt_prtene : non-relax=    5.075778E+03
 13,14 Frozen wf xc core corrections (1) and (2)
 frxc 1  =  -1.83265822E+02  frxc 2 =   1.34891252E+02
 Resulting in :
 2DEtotal=   -0.4469537705E+01 Ha. Also 2DEtotal=   -0.121622306157E+03 eV
    (2DErelax=   -5.0318734231E+03 Ha. 2DEnonrelax=    5.0274038854E+03 Ha)
    (  non-var. 2DEtotal :   -4.4694632862E+00 Ha)

================================================================================

 ---- first-order wavefunction calculations are completed ----


 ==> Compute Derivative Database <==
- Creating HDf5 file with MPI-IO support: io_dir_new/hbn_out_DS5_DDB.nc
 
 phonon wavelength (reduced coordinates) , norm, and energies in hartree
  0.50 0.00 0.00 1.00
 -1.387555888E-03 -1.254674972E-03  2.353040765E-03  2.423973179E-03  2.841029689E-03
  2.910687358E-03  5.214062841E-03  5.219810473E-03  5.266617616E-03  5.441657893E-03
  5.915399721E-03  6.010964808E-03

 Zero Point Motion energy (sum of freqs/2)=  2.047750674E-02

== END DATASET(S) ==============================================================
================================================================================
  
 -outvars: echo values of variables after computation  --------
 
 These variables are accessible in NetCDF format (io_dir_new/hbn_out_OUT.nc)

-          iomode           3
            acell      4.7163728000E+00  4.7163728000E+00  1.2175836200E+01 Bohr
              amu      1.08110000E+01  1.40067400E+01
           diemac      4.50000000E+00
             ecut      2.00000000E+01 Hartree
           etotal1    -2.6593739552E+01
           etotal3    -4.3785953936E+00
           etotal4    -8.9220669717E+00
           etotal5    -4.4695377046E+00
            fcart1     9.3538617931E-25 -5.4004546243E-25 -0.0000000000E+00
                      -9.3538617931E-25 -1.6741409335E-23 -0.0000000000E+00
                       9.3538617931E-25 -5.4004546243E-25 -0.0000000000E+00
                      -9.3538617931E-25  1.7821500260E-23 -0.0000000000E+00
            fcart3     0.0000000000E+00  0.0000000000E+00  0.0000000000E+00
                       0.0000000000E+00  0.0000000000E+00  0.0000000000E+00
                       0.0000000000E+00  0.0000000000E+00  0.0000000000E+00
                       0.0000000000E+00  0.0000000000E+00  0.0000000000E+00
            fcart4     0.0000000000E+00  0.0000000000E+00  0.0000000000E+00
                       0.0000000000E+00  0.0000000000E+00  0.0000000000E+00
                       0.0000000000E+00  0.0000000000E+00  0.0000000000E+00
                       0.0000000000E+00  0.0000000000E+00  0.0000000000E+00
            fcart5     0.0000000000E+00  0.0000000000E+00  0.0000000000E+00
                       0.0000000000E+00  0.0000000000E+00  0.0000000000E+00
                       0.0000000000E+00  0.0000000000E+00  0.0000000000E+00
                       0.0000000000E+00  0.0000000000E+00  0.0000000000E+00
-          fftalg         112
           getddk1          0
           getddk2          0
           getddk3          0
           getddk4          3
           getddk5          0
           getden1          0
           getden2          1
           getden3          0
           getden4          0
           getden5          0
           getwfk1          0
           getwfk2          1
           getwfk3          1
           getwfk4          1
           getwfk5          1
             iscf1          7
             iscf2         -2
             iscf3          7
             iscf4          7
             iscf5          7
           istwfk1       2    3
           istwfk2       1    0    0    1    0    0    0
           istwfk3       1    1    1    1
           istwfk4       1    1    1    1
           istwfk5       1    1    1    1
              ixc          11
           jdtset        1    2    3    4    5
              kpt1     0.00000000E+00  0.00000000E+00  0.00000000E+00
                       5.00000000E-01  0.00000000E+00  0.00000000E+00
              kpt2     0.00000000E+00  0.00000000E+00  0.00000000E+00
                       1.66666667E-01  0.00000000E+00  0.00000000E+00
                       3.33333333E-01  0.00000000E+00  0.00000000E+00
                       5.00000000E-01  0.00000000E+00  0.00000000E+00
                       1.66666667E-01  1.66666667E-01  0.00000000E+00
                       3.33333333E-01  1.66666667E-01  0.00000000E+00
                       3.33333333E-01  3.33333333E-01  0.00000000E+00
              kpt3     0.00000000E+00  0.00000000E+00  0.00000000E+00
                       5.00000000E-01  0.00000000E+00  0.00000000E+00
                       0.00000000E+00  5.00000000E-01  0.00000000E+00
                       5.00000000E-01  5.00000000E-01  0.00000000E+00
              kpt4     0.00000000E+00  0.00000000E+00  0.00000000E+00
                       5.00000000E-01  0.00000000E+00  0.00000000E+00
                       0.00000000E+00  5.00000000E-01  0.00000000E+00
                       5.00000000E-01  5.00000000E-01  0.00000000E+00
              kpt5     0.00000000E+00  0.00000000E+00  0.00000000E+00
                       5.00000000E-01  0.00000000E+00  0.00000000E+00
                       0.00000000E+00  5.00000000E-01  0.00000000E+00
                       5.00000000E-01  5.00000000E-01  0.00000000E+00
           kptopt1          1
           kptopt2          1
           kptopt3          3
           kptopt4          3
           kptopt5          3
         kptrlatt1       2    0    0      0    2    0      0    0    1
         kptrlatt2       6    0    0      0    6    0      0    0    1
         kptrlatt3       2    0    0      0    2    0      0    0    1
         kptrlatt4       2    0    0      0    2    0      0    0    1
         kptrlatt5       2    0    0      0    2    0      0    0    1
          kptrlen1     9.43274560E+00
          kptrlen2     1.21758362E+01
          kptrlen3     9.43274560E+00
          kptrlen4     9.43274560E+00
          kptrlen5     9.43274560E+00
P           mkmem1          2
P           mkmem2          7
P           mkmem3          4
P           mkmem4          4
P           mkmem5          4
P          mkqmem1          2
P          mkqmem2          7
P          mkqmem3          4
P          mkqmem4          4
P          mkqmem5          4
P          mk1mem1          2
P          mk1mem2          7
P          mk1mem3          4
P          mk1mem4          4
P          mk1mem5          4
            natom           4
            nband1         10
            nband2         10
            nband3          9
            nband4          9
            nband5          9
           nbdbuf1          0
           nbdbuf2          2
           nbdbuf3          0
           nbdbuf4          0
           nbdbuf5          0
           ndtset           5
            ngfft          20      20      50
             nkpt1          2
             nkpt2          7
             nkpt3          4
             nkpt4          4
             nkpt5          4
             nqpt1          0
             nqpt2          0
             nqpt3          1
             nqpt4          1
             nqpt5          1
            nstep         100
             nsym          12
           ntypat           2
              occ1     2.000000  2.000000  2.000000  2.000000  2.000000  2.000000
                       2.000000  2.000000  0.000000  0.000000
              occ3     2.000000  2.000000  2.000000  2.000000  2.000000  2.000000
                       2.000000  2.000000  0.000000
              occ4     2.000000  2.000000  2.000000  2.000000  2.000000  2.000000
                       2.000000  2.000000  0.000000
              occ5     2.000000  2.000000  2.000000  2.000000  2.000000  2.000000
                       2.000000  2.000000  0.000000
        optdriver1          0
        optdriver2          0
        optdriver3          1
        optdriver4          1
        optdriver5          1
           prtpot1          0
           prtpot2          0
           prtpot3          1
           prtpot4          1
           prtpot5          1
          prtkbff1          0
          prtkbff2          1
          prtkbff3          0
          prtkbff4          0
          prtkbff5          0
            prtwf1          1
            prtwf2          1
            prtwf3          1
            prtwf4          0
            prtwf5          0
              qpt1     0.00000000E+00  0.00000000E+00  0.00000000E+00
              qpt2     0.00000000E+00  0.00000000E+00  0.00000000E+00
              qpt3     0.00000000E+00  0.00000000E+00  0.00000000E+00
              qpt4     0.00000000E+00  0.00000000E+00  0.00000000E+00
              qpt5     5.00000000E-01  0.00000000E+00  0.00000000E+00
          rfatpol           1       4
            rfdir           1       1       1
           rfelfd1          0
           rfelfd2          0
           rfelfd3          2
           rfelfd4          3
           rfelfd5          0
           rfphon1          0
           rfphon2          0
           rfphon3          0
           rfphon4          1
           rfphon5          1
            rprim      1.0000000000E+00  0.0000000000E+00  0.0000000000E+00
                      -5.0000000000E-01  8.6602540378E-01  0.0000000000E+00
                       0.0000000000E+00  0.0000000000E+00  1.0000000000E+00
          spgroup         194
           strten1     6.4071830743E-04  6.4071830749E-04  1.4295651071E-03
                       0.0000000000E+00  0.0000000000E+00  0.0000000000E+00
           strten3     0.0000000000E+00  0.0000000000E+00  0.0000000000E+00
                       0.0000000000E+00  0.0000000000E+00  0.0000000000E+00
           strten4     0.0000000000E+00  0.0000000000E+00  0.0000000000E+00
                       0.0000000000E+00  0.0000000000E+00  0.0000000000E+00
           strten5     0.0000000000E+00  0.0000000000E+00  0.0000000000E+00
                       0.0000000000E+00  0.0000000000E+00  0.0000000000E+00
        symmorphi           0
           symrel      1  0  0   0  1  0   0  0  1       0 -1  0  -1  0  0   0  0 -1
                      -1 -1  0   1  0  0   0  0 -1      -1  0  0   1  1  0   0  0  1
                       0  1  0  -1 -1  0   0  0  1       1  1  0   0 -1  0   0  0 -1
                       1  0  0   0  1  0   0  0 -1       0 -1  0  -1  0  0   0  0  1
                      -1 -1  0   1  0  0   0  0  1      -1  0  0   1  1  0   0  0 -1
                       0  1  0  -1 -1  0   0  0 -1       1  1  0   0 -1  0   0  0  1
           toldfe1     1.00000000E-10 Hartree
           toldfe2     0.00000000E+00 Hartree
           toldfe3     0.00000000E+00 Hartree
           toldfe4     1.00000000E-10 Hartree
           toldfe5     1.00000000E-10 Hartree
           tolwfr1     0.00000000E+00
           tolwfr2     1.00000000E-08
           tolwfr3     1.00000000E-22
           tolwfr4     0.00000000E+00
           tolwfr5     0.00000000E+00
            typat      1  2  1  2
              wtk1       0.25000    0.75000
              wtk2       0.02778    0.16667    0.16667    0.08333    0.16667    0.33333
                         0.05556
              wtk3       0.25000    0.25000    0.25000    0.25000
              wtk4       0.25000    0.25000    0.25000    0.25000
              wtk5       0.25000    0.25000    0.25000    0.25000
           xangst      1.2478984965E+00  7.2047453286E-01  0.0000000000E+00
                      -1.2478984965E+00 -7.2047453286E-01  0.0000000000E+00
                      -1.2478984965E+00 -7.2047453286E-01  3.2215875063E+00
                       1.2478984965E+00  7.2047453286E-01  3.2215875063E+00
            xcart      2.3581864000E+00  1.3614995528E+00  0.0000000000E+00
                      -2.3581864000E+00 -1.3614995528E+00  0.0000000000E+00
                      -2.3581864000E+00 -1.3614995528E+00  6.0879181000E+00
                       2.3581864000E+00  1.3614995528E+00  6.0879181000E+00
             xred      6.6666666667E-01  3.3333333333E-01  0.0000000000E+00
                      -6.6666666667E-01 -3.3333333333E-01  0.0000000000E+00
                      -6.6666666667E-01 -3.3333333333E-01  5.0000000000E-01
                       6.6666666667E-01  3.3333333333E-01  5.0000000000E-01
            znucl        5.00000    7.00000

================================================================================
  
 Proc.   0 individual time (sec): cpu=         38.6  wall=         63.7

 Calculation completed.
.Delivered   4 WARNINGs and  13 COMMENTs to log file.

--- !FinalSummary
program: abinit
version: 9.7.4
start_datetime: Thu Sep 22 09:36:04 2022
end_datetime: Thu Sep 22 09:37:08 2022
overall_cpu_time:          38.6
overall_wall_time:          63.7
exit_requested_by_user: no 
timelimit: 0
pseudos: 
    B   : 33584e3c449dab07fef6d5ec47c17801
    N   : 01bdf84d59ae6bc236a02b05a98ec0f5
usepaw: 0
mpi_procs: 1
omp_threads: 1
num_warnings: 4
num_comments: 13
...
