  ABINIT 9.7.4
  
 DeprecationWarning: 

     The files file has been deprecated in Abinit9 and will be removed in Abinit10.
     Use the syntax `abinit t01.abi` where t01.abi is an input with pseudopotentials e.g.

            pseudos = "al.psp8, as.psp8"


  Give name for formatted input file: 
inputs_new/04hbn_ddb_q_bz.in
  Give name for formatted output file:
04hbn_ddb_q_bz_new.out
  Give root name for generic input files:
io_dir_new/hbn_out_DS2
  Give root name for generic output files:
io_dir_new/hbn_q_bz_out
  Give root name for generic temporary files:
io_dir_new/hbn_q_bz_t

.Version 9.7.4 of ABINIT 
.(MPI version, prepared for a x86_64_linux_gnu9.4 computer) 

.Copyright (C) 1998-2022 ABINIT group . 
 ABINIT comes with ABSOLUTELY NO WARRANTY.
 It is free software, and you are welcome to redistribute it
 under certain conditions (GNU General Public License,
 see ~abinit/COPYING or http://www.gnu.org/copyleft/gpl.txt).

 ABINIT is a project of the Universite Catholique de Louvain,
 Corning Inc. and other collaborators, see ~abinit/doc/developers/contributors.txt .
 Please read https://docs.abinit.org/theory/acknowledgments for suggested
 acknowledgments of the ABINIT effort.
 For more information, see https://www.abinit.org .

.Starting date : Thu 22 Sep 2022.
- ( at 09h37 )
  

 ++++++++++++++++++++++++++++++++++++++++++++++++++++++++++++++++++++++++++++++

 === Build Information === 
  Version       : 9.7.4
  Build target  : x86_64_linux_gnu9.4
  Build date    : 20220527

 === Compiler Suite === 
  C compiler       : gnu9.4
  C++ compiler     : gnu9.4
  Fortran compiler : gnu9.4
  CFLAGS           : -g -O2
  CXXFLAGS         : -g -O2 -mtune=native -march=native
  FCFLAGS          : -g -ffree-line-length-none  -fopenmp   -I/data/shared/yambo-libs/de ...
  FC_LDFLAGS       : 

 === Optimizations === 
  Debug level        : basic
  Optimization level : standard
  Architecture       : unknown_unknown

 === Multicore === 
  Parallel build : yes
  Parallel I/O   : yes
  openMP support : yes
  GPU support    : 

 === Connectors / Fallbacks === 
  LINALG flavor  : netlib
  FFT flavor     : goedecker
  HDF5           : yes
  NetCDF         : yes
  NetCDF Fortran : yes
  LibXC          : yes
  Wannier90      : no

 === Experimental features === 
  Exports             : 
  GW double-precision : 

 ++++++++++++++++++++++++++++++++++++++++++++++++++++++++++++++++++++++++++++++


 ++++++++++++++++++++++++++++++++++++++++++++++++++++++++++++++++++++++++++++++
 Default optimizations:
   -O2 -mtune=native -march=native


 Optimizations for 43_ptgroups:
   -O0


 ++++++++++++++++++++++++++++++++++++++++++++++++++++++++++++++++++++++++++++++


 ++++++++++++++++++++++++++++++++++++++++++++++++++++++++++++++++++++++++++++++
 CPP options activated during the build:

                    CC_GNU                   CXX_GNU                    FC_GNU
 
 HAVE_FC_ALLOCATABLE_DT...             HAVE_FC_ASYNC         HAVE_FC_BACKTRACE
 
  HAVE_FC_COMMAND_ARGUMENT      HAVE_FC_COMMAND_LINE        HAVE_FC_CONTIGUOUS
 
           HAVE_FC_CPUTIME              HAVE_FC_EXIT             HAVE_FC_FLUSH
 
             HAVE_FC_GAMMA            HAVE_FC_GETENV   HAVE_FC_IEEE_ARITHMETIC
 
   HAVE_FC_IEEE_EXCEPTIONS          HAVE_FC_INT_QUAD             HAVE_FC_IOMSG
 
     HAVE_FC_ISO_C_BINDING  HAVE_FC_ISO_FORTRAN_2008        HAVE_FC_LONG_LINES
 
        HAVE_FC_MOVE_ALLOC  HAVE_FC_ON_THE_FLY_SHAPE           HAVE_FC_PRIVATE
 
         HAVE_FC_PROTECTED           HAVE_FC_SHIFTLR         HAVE_FC_STREAM_IO
 
            HAVE_FC_SYSTEM          HAVE_FORTRAN2003                 HAVE_HDF5
 
             HAVE_HDF5_MPI        HAVE_LIBPAW_ABINIT      HAVE_LIBTETRA_ABINIT
 
                HAVE_LIBXC                  HAVE_MPI                 HAVE_MPI2
 
       HAVE_MPI_IALLGATHER       HAVE_MPI_IALLREDUCE        HAVE_MPI_IALLTOALL
 
       HAVE_MPI_IALLTOALLV           HAVE_MPI_IBCAST         HAVE_MPI_IGATHERV
 
        HAVE_MPI_INTEGER16               HAVE_MPI_IO HAVE_MPI_TYPE_CREATE_S...
 
               HAVE_NETCDF       HAVE_NETCDF_FORTRAN   HAVE_NETCDF_FORTRAN_MPI
 
           HAVE_NETCDF_MPI                HAVE_NUMPY         HAVE_OMP_COLLAPSE
 
               HAVE_OPENMP             HAVE_OS_LINUX         HAVE_TIMER_ABINIT
 
 ++++++++++++++++++++++++++++++++++++++++++++++++++++++++++++++++++++++++++++++

- input  file    -> inputs_new/04hbn_ddb_q_bz.in
- output file    -> 04hbn_ddb_q_bz_new.out
- root for input  files -> io_dir_new/hbn_out_DS2
- root for output files -> io_dir_new/hbn_q_bz_out

 Netcdf library supports MPI-IO
-instrng: 61 lines of input have been read from file inputs_new/04hbn_ddb_q_bz.in

 For atom type 1, psp file is B.psp8
 For atom type 2, psp file is N.psp8
  read the values zionpsp=  3.0 , pspcod=   8 , lmax=   1
  read the values zionpsp=  5.0 , pspcod=   8 , lmax=   1

 inpspheads: deduce mpsang = 2, n1xccc = 2501.

======================================================= 
 invars1m : enter jdtset= 0

 symlatt: the Bravais lattice is hP (primitive hexagonal)
  xcart  is defined in input file (possibly in Angstrom)
 ingeo: takes atomic coordinates from input array xcart

--- !COMMENT
src_file: m_ingeo.F90
src_line: 900
message: |
    The tolerance on symmetries =   1.000E-05 is bigger than 1.0e-8.
    In order to avoid spurious effects, the atomic coordinates have been
    symmetrized before storing them in the dataset internal variable.
    So, do not be surprised by the fact that your input variables (xcart, xred, ...)
    do not correspond exactly to the ones echoed by ABINIT, the latter being used to do the calculations.
    This is not a problem per se.
    Still, in order to avoid this symmetrization (e.g. for specific debugging/development), decrease tolsym to 1.0e-8 or lower,
    or (much preferred) use input primitive vectors that are accurate to better than 1.0e-8.
    This message will only be printed once, even if there are other datasets where tolsym is bigger than 1.0e-8.
...


 symlatt: the Bravais lattice is hP (primitive hexagonal)

 symlatt: the Bravais lattice is hP (primitive hexagonal)
 symspgr: spgroup= 194  P6_3/m m c   (=D6h^4)
 symspgr: optical characteristics = uniaxial
 Optical axis (in reduced coordinates, real space ) :   0   0   1
 invars2: take the default value of fband=  1.25000000E-01
 For input ecut=  2.000000E+01 best grid ngfft=      20      20      50
       max ecut=  2.080426E+01

 ==== FFT mesh ====
  FFT mesh divisions ........................    20   20   50
  Augmented FFT divisions ...................    21   21   50
  FFT algorithm .............................   112
  FFT cache size ............................    16
 getmpw: optimal value of mpw= 1011

 Symmetries : space group P6_3/m m c (#194); Bravais hP (primitive hexag.)

 getdim_nloc : deduce lmnmax  =   8, lnmax  =   4,
                      lmnmaxso=   8, lnmaxso=   4.
memory: analysis of memory needs
================================================================================
 Values of the parameters that define the memory need of the present run
     intxc =       0    ionmov =       0      iscf =       7    lmnmax =       4
     lnmax =       4     mgfft =      50  mpssoang =       2    mqgrid =    3001
     natom =       4  nloc_mem =       1    nspden =       1   nspinor =       1
    nsppol =       1      nsym =      12    n1xccc =    2501    ntypat =       2
    occopt =       1   xclevel =       2
-    mband =           9        mffmem =           1         mkmem =           7
       mpw =        1011          nfft =       20000          nkpt =           7
================================================================================
P This job should need less than                       8.495 Mbytes of memory.
  Rough estimation (10% accuracy) of disk space for files :
_ WF disk file :      0.974 Mbytes ; DEN or POT disk file :      0.155 Mbytes.
================================================================================

 Biggest array : f_fftgr(disk), with      2.4434 MBytes.
--------------------------------------------------------------------------------
------------- Echo of variables that govern the present computation ------------
--------------------------------------------------------------------------------
-
- outvars: echo of selected default values                                      
-   iomode0 =  0 , fftalg0 =112 , wfoptalg0 =  0
-
- outvars: echo of global parameters not present in the input file              
-  max_nthreads =    1
-
 -outvars: echo values of preprocessed input variables --------
 
 These variables are accessible in NetCDF format (io_dir_new/hbn_q_bz_out_OUT.nc)

-          iomode           3
            acell      4.7163728000E+00  4.7163728000E+00  1.2175836200E+01 Bohr
              amu      1.08110000E+01  1.40067400E+01
        ddb_ngqpt        2    2    1
           diemac      4.50000000E+00
             ecut      2.00000000E+01 Hartree
   eph_ngqpt_fine        6    6    1
         eph_task          11
-          fftalg         112
           istwfk        2    0    0    3    0    0    0
              ixc          11
              kpt      0.00000000E+00  0.00000000E+00  0.00000000E+00
                       1.66666667E-01  0.00000000E+00  0.00000000E+00
                       3.33333333E-01  0.00000000E+00  0.00000000E+00
                       5.00000000E-01  0.00000000E+00  0.00000000E+00
                       1.66666667E-01  1.66666667E-01  0.00000000E+00
                       3.33333333E-01  1.66666667E-01  0.00000000E+00
                       3.33333333E-01  3.33333333E-01  0.00000000E+00
         kptrlatt        6    0    0      0    6    0      0    0    1
          kptrlen      1.21758362E+01
P           mkmem           7
            natom           4
            nband           9
            ngfft          20      20      50
             nkpt           7
            nstep         100
             nsym          12
           ntypat           2
              occ      2.000000  2.000000  2.000000  2.000000  2.000000  2.000000
                       2.000000  2.000000  0.000000
        optdriver           7
         ph_ngqpt        6    6    6
            rprim      1.0000000000E+00  0.0000000000E+00  0.0000000000E+00
                      -5.0000000000E-01  8.6602540378E-01  0.0000000000E+00
                       0.0000000000E+00  0.0000000000E+00  1.0000000000E+00
          spgroup         194
        symmorphi           0
           symrel      1  0  0   0  1  0   0  0  1       0 -1  0  -1  0  0   0  0 -1
                      -1 -1  0   1  0  0   0  0 -1      -1  0  0   1  1  0   0  0  1
                       0  1  0  -1 -1  0   0  0  1       1  1  0   0 -1  0   0  0 -1
                       1  0  0   0  1  0   0  0 -1       0 -1  0  -1  0  0   0  0  1
                      -1 -1  0   1  0  0   0  0  1      -1  0  0   1  1  0   0  0 -1
                       0  1  0  -1 -1  0   0  0 -1       1  1  0   0 -1  0   0  0  1
           toldfe      1.00000000E-10 Hartree
            typat      1  2  1  2
              wtk        0.02778    0.16667    0.16667    0.08333    0.16667    0.33333
                         0.05556
           xangst      1.2478984965E+00  7.2047453286E-01  0.0000000000E+00
                      -1.2478984965E+00 -7.2047453286E-01  0.0000000000E+00
                      -1.2478984965E+00 -7.2047453286E-01  3.2215875063E+00
                       1.2478984965E+00  7.2047453286E-01  3.2215875063E+00
            xcart      2.3581864000E+00  1.3614995528E+00  0.0000000000E+00
                      -2.3581864000E+00 -1.3614995528E+00  0.0000000000E+00
                      -2.3581864000E+00 -1.3614995528E+00  6.0879181000E+00
                       2.3581864000E+00  1.3614995528E+00  6.0879181000E+00
             xred      6.6666666667E-01  3.3333333333E-01  0.0000000000E+00
                      -6.6666666667E-01 -3.3333333333E-01  0.0000000000E+00
                      -6.6666666667E-01 -3.3333333333E-01  5.0000000000E-01
                       6.6666666667E-01  3.3333333333E-01  5.0000000000E-01
            znucl        5.00000    7.00000

================================================================================

 chkinp: Checking input parameters for consistency.
 DATA TYPE INFORMATION: 
 REAL:      Data type name: REAL(DP) 
            Kind value:      8
            Precision:      15
            Smallest nonnegligible quantity relative to 1: 0.22204460E-015
            Smallest positive number:                      0.22250739E-307
            Largest representable number:                  0.17976931E+309
 INTEGER:   Data type name: INTEGER(default) 
            Kind value: 4
            Bit size:   32
            Largest representable number: 2147483647
 LOGICAL:   Data type name: LOGICAL 
            Kind value: 4
 CHARACTER: Data type name: CHARACTER             Kind value: 1

  ==== OpenMP parallelism is ON ====
- Max_threads:       1
- Num_threads:       1
- Num_procs:         6
- Dynamic:           F
 
  ==== Using MPI-2 specifications ==== 
  MPI-IO support is ON
  xmpi_tag_ub ................    268435455
  xmpi_bsize_ch ..............            1
  xmpi_bsize_int .............            4
  xmpi_bsize_sp ..............            4
  xmpi_bsize_dp ..............            8
  xmpi_bsize_spc .............            8
  xmpi_bsize_dpc .............           16
  xmpio_bsize_frm ............            4
  xmpi_address_kind ..........            8
  xmpi_offset_kind ...........            8
  MPI_WTICK ..................    1.0000000000000001E-009

================================================================================
== DATASET  1 ==================================================================
-   mpi_nproc: 1, omp_nthreads: 1 (-1 if OMP is not activated)


--- !COMMENT
src_file: m_xgScalapack.F90
src_line: 236
message: |
    xgScalapack in auto mode
...

 mkfilename: getwfk from: io_dir_new/hbn_out_DS2_WFK.nc

 mkfilename: getddb from: io_dir_new/hbn_DDB

 mkfilename: getdvdb from: io_dir_new/hbn_DVDB


 getdim_nloc : deduce lmnmax  =   8, lnmax  =   4,
                      lmnmaxso=   8, lnmaxso=   4.
 Exchange-correlation functional for the present dataset will be:
  GGA: Perdew-Burke-Ernzerhof functional - ixc=11
 Citation for XC functional:
  J.P.Perdew, K.Burke, M.Ernzerhof, PRL 77, 3865 (1996)

 Reading eigenvalues from: io_dir_new/hbn_out_DS2_WFK.nc , with iomode: IO_MODE_ETSF
 wfk_read_eigenvalues_io completed. cpu:  0.01 [s] , wall:  0.01 [s] <<< TIME
 wfk_read_eigenvalues completed. cpu:  0.01 [s] , wall:  0.01 [s] <<< TIME

--- !COMMENT
src_file: m_hdr.F90
src_line: 5133
message: |
    istwfk read from Header differs from the values specified in the input file (this is not critical)
...


  ==== crystal structure from WFK file ====
 Real(R)+Recip(G) space primitive vectors, cartesian coordinates (Bohr,Bohr^-1):
 R(1)=  4.7163728  0.0000000  0.0000000  G(1)=  0.2120273  0.1224140  0.0000000
 R(2)= -2.3581864  4.0844987  0.0000000  G(2)=  0.0000000  0.2448281  0.0000000
 R(3)=  0.0000000  0.0000000 12.1758362  G(3)=  0.0000000  0.0000000  0.0821299
 Unit cell volume ucvol=  2.3455553E+02 bohr^3
 Angles (23,13,12)=  9.00000000E+01  9.00000000E+01  1.20000000E+02 degrees
 Time-reversal symmetry is present
 Reduced atomic positions [iatom, xred, symbol]:
    1)    0.6666667  0.3333333  0.0000000   B
    2)   -0.6666667 -0.3333333  0.0000000   N
    3)   -0.6666667 -0.3333333  0.5000000   B
    4)    0.6666667  0.3333333  0.5000000   N
 Top of valence:   3.4637 (eV)
 Bottom of conduction:   7.5367 (eV)
 Fermi level: 5.5002  (eV) 

 ==== Ground state energies ====
  Number of spinorial components ...... 1
  Number of spin polarizations ........ 1
  Number of k-points in the IBZ ....... 7
  kptopt .............................. 1
  Maximum number of bands ............. 10
  Occupation option ................... 1

  kptrlatt .............. [6, 0, 0, 0, 6, 0, 0, 0, 1]
  shiftk ................ [   0.0000E+00,    0.0000E+00,    0.0000E+00]
  Number of valence electrons .........          16.00
  Extra cell charge (from GS run)......           0.00
  Extra electrons (after GS run).......           0.00
  Fermi level  ........................       0.202129
  Entropy .............................       0.000000
  Tsmear value ........................       0.010000
  Tphysel value .......................       0.000000

 eph%init completed. cpu:  0.01 [s] , wall:  0.01 [s] <<< TIME
 eph%ebands_postprocess: completed. cpu:  0.00 [s] , wall:  0.00 [s] <<< TIME
 Opening DDB file: io_dir_new/hbn_DDB
  inprep8 : nband(1)=           9
        occ  0.20000000000000D+01  0.20000000000000D+01  0.20000000000000D+01
             0.20000000000000D+01  0.20000000000000D+01  0.20000000000000D+01
             0.20000000000000D+01  0.20000000000000D+01  0.00000000000000D+00
 Opening DDB file: io_dir_new/hbn_DDB
  inprep8 : nband(1)=           9
        occ  0.20000000000000D+01  0.20000000000000D+01  0.20000000000000D+01
             0.20000000000000D+01  0.20000000000000D+01  0.20000000000000D+01
             0.20000000000000D+01  0.20000000000000D+01  0.00000000000000D+00
 About to open file io_dir_new/hbn_DDB
 Unit cell volume ucvol=  2.3455553E+02 bohr^3
 Angles (23,13,12)=  9.00000000E+01  9.00000000E+01  1.20000000E+02 degrees


 rdddb9: read 2 blocks from the input DDB
 Now the whole DDB is in central memory
 Comparing WFK crystal with DDB crystal
 Dielectric Tensor     9.303197E+00   -1.522700E-15   -0.000000E+00   -1.979718E-15    9.303197E+00   -0.000000E+00   -0.000000E+00   -0.000000E+00    2.795013E+00

================================================================================

 Dielectric Tensor and Effective Charges 


 anaddb : Zero the imaginary part of the Dynamical Matrix at Gamma,
   and impose the ASR on the effective charges 

 Now, the imaginary part of the dynamical matrix is zeroed
 Dielectric Tensor     9.303197E+00   -1.522700E-15   -0.000000E+00   -1.979718E-15    9.303197E+00   -0.000000E+00   -0.000000E+00   -0.000000E+00    2.795013E+00
 Effectives Charges
 atom    1    4.180491E+00    8.295121E-17    0.000000E+00    0.000000E+00    4.180491E+00    0.000000E+00    0.000000E+00    0.000000E+00    8.277802E-01
 atom    2   -4.180493E+00   -3.272683E-17    0.000000E+00    0.000000E+00   -4.180493E+00    0.000000E+00    0.000000E+00    0.000000E+00   -8.277806E-01
 atom    3    4.180492E+00    8.098245E-17    0.000000E+00    0.000000E+00    4.180492E+00    0.000000E+00    0.000000E+00    0.000000E+00    8.277808E-01
 atom    4   -4.180490E+00   -1.312068E-16    0.000000E+00    0.000000E+00   -4.180490E+00    0.000000E+00    0.000000E+00    0.000000E+00   -8.277804E-01
 Will extract the dipole-dipole part for every wavevector
 Canonical Atomic Coordinates
 atom    1   -5.00000000E-01    2.88675135E-01    0.00000000E+00
 atom    2    5.00000000E-01   -2.88675135E-01    0.00000000E+00
 atom    3    5.00000000E-01   -2.88675135E-01    5.00000000E-01
 atom    4   -5.00000000E-01    2.88675135E-01    5.00000000E-01

 The interatomic forces have been obtained
 ifc_init1 completed. cpu:  0.11 [s] , wall:  0.11 [s] <<< TIME
 ifc_init2 completed. cpu:  0.04 [s] , wall:  0.04 [s] <<< TIME
 ==== Info on the interatomic force constants ====
 Real(R)+Recip(G) space primitive vectors, cartesian coordinates (Bohr,Bohr^-1):
 R(1)=  1.0000000  0.0000000  0.0000000  G(1)=  1.0000000  0.5773503 -0.0000000
 R(2)= -0.5000000  0.8660254  0.0000000  G(2)=  0.0000000  1.1547005  0.0000000
 R(3)=  0.0000000  0.0000000  1.0000000  G(3)=  0.0000000 -0.0000000  1.0000000
 acell: [   4.7164E+00,    4.7164E+00,    1.2176E+01]
 Acoustic Sum Rule option (asr): 1
 Option for the sampling of the BZ (brav): 1
 Symmetrization flag (symdynmat): 1
 Dipole-dipole interaction flag (dipdip): 1
 Dipole-quadrupole interaction flag (dipquad): 0
 quadrupole-quadrupole interaction flag (quadquad): 0
 Ewald option: 0
 Dielectric tensor: 
 [      9.30,      -0.00,      -0.00,      -0.00,       9.30,      -0.00,      -0.00,      -0.00,       2.80]
 Effective charges:
[      4.18,       0.00,       0.00,       0.00,       4.18,       0.00,       0.00,       0.00,       0.83]
[     -4.18,       0.00,       0.00,      -0.00,      -4.18,       0.00,       0.00,       0.00,      -0.83]
[      4.18,       0.00,       0.00,       0.00,       4.18,       0.00,       0.00,       0.00,       0.83]
[     -4.18,       0.00,       0.00,      -0.00,      -4.18,       0.00,       0.00,       0.00,      -0.83]
 Quadrupolar terms:
[      0.00,       0.00,       0.00,       0.00,       0.00,       0.00,       0.00,       0.00,       0.00]
[      0.00,       0.00,       0.00,       0.00,       0.00,       0.00,       0.00,       0.00,       0.00]
[      0.00,       0.00,       0.00,       0.00,       0.00,       0.00,       0.00,       0.00,       0.00]
[      0.00,       0.00,       0.00,       0.00,       0.00,       0.00,       0.00,       0.00,       0.00]
[      0.00,       0.00,       0.00,       0.00,       0.00,       0.00,       0.00,       0.00,       0.00]
[      0.00,       0.00,       0.00,       0.00,       0.00,       0.00,       0.00,       0.00,       0.00]
[      0.00,       0.00,       0.00,       0.00,       0.00,       0.00,       0.00,       0.00,       0.00]
[      0.00,       0.00,       0.00,       0.00,       0.00,       0.00,       0.00,       0.00,       0.00]
[      0.00,       0.00,       0.00,       0.00,       0.00,       0.00,       0.00,       0.00,       0.00]
[      0.00,       0.00,       0.00,       0.00,       0.00,       0.00,       0.00,       0.00,       0.00]
[      0.00,       0.00,       0.00,       0.00,       0.00,       0.00,       0.00,       0.00,       0.00]
[      0.00,       0.00,       0.00,       0.00,       0.00,       0.00,       0.00,       0.00,       0.00]
 Mass of the atoms (atomic mass unit): [   1.0811E+01,    1.4007E+01]
 Number of real-space points for IFC(R): 39
 Radius of biggest sphere inscribed in the WS supercell: 9.432746E+00

 Q-mesh:
 ngqpt: [2, 2, 1] , nqshft: 1
[ 0.0000E+00,  0.0000E+00,  0.0000E+00]

--- !COMMENT
src_file: m_phonons.F90
src_line: 2919
message: |
    ph_nqpath <= 0 or ph_ndivsm <= 0. Phonon bands won't be produced. Returning
...

 Computing Phonon DOS. Use prtphdos 0 to disable this part.

 mkphdos: calculating phonon DOS using tetrahedron method:
    frequency step    [meV] =  0.10000, nomega = 2237
 DOS ngqpt: [6, 6, 6], qptopt: 1
 Number of q-points in the IBZ: 28, number of MPI processes: 1
 Average speed of sound partial sums:     0.4200923954E-02 (at units)
-                                   =           9.1903 [km/s]

 Debye frequency from partial sums:     0.2655094108E-02 (Ha)
-                                 =     0.1746968001E+02 (THz)
-Debye temperature from partial sums:     0.8384114128E+03 (K)

 Allocating tetra%ibz%indexes with memory: 0.0  [Mb] <<< MEM
 tetra accumulate completed. cpu:  0.26 [s] , wall:  0.26 [s] <<< TIME
 mkphdos completed. cpu:  0.88 [s] , wall:  0.90 [s] <<< TIME
Initial frequency mesh not large enough. Recomputing PHDOS with wmin, wmax: -0.00150 0.00807

 mkphdos: calculating phonon DOS using tetrahedron method:
    frequency step    [meV] =  0.10000, nomega = 2605
 DOS ngqpt: [6, 6, 6], qptopt: 1
 Number of q-points in the IBZ: 28, number of MPI processes: 1
 Average speed of sound partial sums:     0.4200923954E-02 (at units)
-                                   =           9.1903 [km/s]

 Debye frequency from partial sums:     0.2655094108E-02 (Ha)
-                                 =     0.1746968001E+02 (THz)
-Debye temperature from partial sums:     0.8384114128E+03 (K)

 Allocating tetra%ibz%indexes with memory: 0.0  [Mb] <<< MEM
 tetra accumulate completed. cpu:  0.31 [s] , wall:  0.33 [s] <<< TIME
 mkphdos completed. cpu:  0.94 [s] , wall:  0.96 [s] <<< TIME
- Creating HDf5 file with MPI-IO support: io_dir_new/hbn_q_bz_out_PHDOS.nc
 eph%ifc: completed. cpu:  2.01 [s] , wall:  2.45 [s] <<< TIME
- Analyzing DVDB file: io_dir_new/hbn_DVDB ...
- dvdb_new completed. cpu:  0.00 [s] , wall:  0.00 [s] <<< TIME
 Comparing WFK crystal with DVDB crystal
 ==== Info on the dvdb% object ====
 DVDB version: 2
 File path: io_dir_new/hbn_DVDB
 Number of v1scf potentials: 25
 Number of q-points in DVDB: 2
-P Number of CPUs for parallelism over perturbations: 1
-P Number of perturbations treated by this CPU: 12
 Option for symmetrization of v1scf(r): 0
 List of q-points: min(10, nqpt)
[ 1 ] [ 0.0000E+00,  0.0000E+00,  0.0000E+00]
[ 2 ] [ 5.0000E-01,  0.0000E+00,  0.0000E+00]
 Have dielectric tensor: yes
 Have Born effective charges: yes
 Have quadrupoles: no
 Have electric field: no
 Treatment of long-range part in V1scf (add_lr): 1
 Damping factor for Gaussian filter (qdamp):   0.1
 Dielectric tensor in Cart coords:
    9.303197E+00   -1.522700E-15   -0.000000E+00
   -1.979718E-15    9.303197E+00   -0.000000E+00
   -0.000000E+00   -0.000000E+00    2.795013E+00
 Born effectives charges in Cart coords:
 iatom: 1 , type:  B
    4.180491E+00    8.295121E-17    0.000000E+00
    0.000000E+00    4.180491E+00    0.000000E+00
    0.000000E+00    0.000000E+00    8.277802E-01

 iatom: 2 , type:  N
   -4.180493E+00   -3.272683E-17    0.000000E+00
    0.000000E+00   -4.180493E+00    0.000000E+00
    0.000000E+00    0.000000E+00   -8.277806E-01

 iatom: 3 , type:  B
    4.180492E+00    8.098245E-17    0.000000E+00
    0.000000E+00    4.180492E+00    0.000000E+00
    0.000000E+00    0.000000E+00    8.277808E-01

 iatom: 4 , type:  N
   -4.180490E+00   -1.312068E-16    0.000000E+00
    0.000000E+00   -4.180490E+00    0.000000E+00
    0.000000E+00    0.000000E+00   -8.277804E-01


 Fulfillment of charge neutrality, \sum_{atom} Z^*_{ij,atom} = 0
   -8.881784E-16   -4.930381E-32    0.000000E+00
    0.000000E+00   -8.881784E-16    0.000000E+00
    0.000000E+00    0.000000E+00    0.000000E+00

 qpoint: [ 0.0000E+00,  0.0000E+00,  0.0000E+00] is present in the DVDB file
 The list of irreducible perturbations for this q vector is:
    1)  idir= 1, ipert=   1, type=independent, found=Yes
    2)  idir= 2, ipert=   1, type=symmetric, found=No
    3)  idir= 3, ipert=   1, type=independent, found=Yes
    4)  idir= 1, ipert=   2, type=independent, found=Yes
    5)  idir= 2, ipert=   2, type=symmetric, found=No
    6)  idir= 3, ipert=   2, type=independent, found=Yes
    7)  idir= 1, ipert=   3, type=independent, found=Yes
    8)  idir= 2, ipert=   3, type=symmetric, found=No
    9)  idir= 3, ipert=   3, type=independent, found=Yes
   10)  idir= 1, ipert=   4, type=independent, found=Yes
   11)  idir= 2, ipert=   4, type=symmetric, found=No
   12)  idir= 3, ipert=   4, type=independent, found=Yes

 qpoint: [ 5.0000E-01,  0.0000E+00,  0.0000E+00] is present in the DVDB file
 The list of irreducible perturbations for this q vector is:
    1)  idir= 1, ipert=   1, type=independent, found=Yes
    2)  idir= 2, ipert=   1, type=independent, found=Yes
    3)  idir= 3, ipert=   1, type=independent, found=Yes
    4)  idir= 1, ipert=   2, type=independent, found=Yes
    5)  idir= 2, ipert=   2, type=independent, found=Yes
    6)  idir= 3, ipert=   2, type=independent, found=Yes
    7)  idir= 1, ipert=   3, type=independent, found=Yes
    8)  idir= 2, ipert=   3, type=independent, found=Yes
    9)  idir= 3, ipert=   3, type=independent, found=Yes
   10)  idir= 1, ipert=   4, type=independent, found=Yes
   11)  idir= 2, ipert=   4, type=independent, found=Yes
   12)  idir= 3, ipert=   4, type=independent, found=Yes

 All the independent perturbations are available

 getcut: wavevector=  0.0000  0.0000  0.0000  ngfft=  20  20  50
         ecut(hartree)=     20.000   => boxcut(ratio)=   2.03982

 ==== Coarse FFT mesh used for the wavefunctions ====
  FFT mesh divisions ........................    20   20   50
  Augmented FFT divisions ...................    21   21   50
  FFT algorithm .............................   112
  FFT cache size ............................    16

 ==== Dense FFT mesh used for densities and potentials ====
  FFT mesh divisions ........................    20   20   50
  Augmented FFT divisions ...................    21   21   50
  FFT algorithm .............................   112
  FFT cache size ............................    16
- pspini: atom type   1  psp file is B.psp8
- pspatm: opening atomic psp file    B.psp8
- B     ONCVPSP-3.2.3.1  r_core=   1.20849   1.20849
-  5.00000   3.00000    170503                znucl, zion, pspdat
    8   11    1    4       600   0.00000      pspcod,pspxc,lmax,lloc,mmax,r2well
    5.99000000000000    2.90000000000000    0.00000000000000   rchrg,fchrg,qchrg
     nproj     2     2
     extension_switch     1
  valence charge integrates to:    2.9827082303705561     
  pspatm : epsatm=    3.38844677
         --- l  ekb(1:nproj) -->
             0    8.382104    1.234201
             1   -3.719492   -0.867526
 pspatm: atomic psp has been read  and splines computed

- pspini: atom type   2  psp file is N.psp8
- pspatm: opening atomic psp file    N.psp8
- N     ONCVPSP-3.2.3.1  r_core=   1.20551   1.35824
-  7.00000   5.00000    170503                znucl, zion, pspdat
    8   11    1    4       600   0.00000      pspcod,pspxc,lmax,lloc,mmax,r2well
    5.99000000000000    4.00000000000000    0.00000000000000   rchrg,fchrg,qchrg
     nproj     2     2
     extension_switch     1
  valence charge integrates to:    4.9973675462084248     
  pspatm : epsatm=    5.20978323
         --- l  ekb(1:nproj) -->
             0    7.494509    0.636305
             1   -4.293905   -1.006988
 pspatm: atomic psp has been read  and splines computed

   2.75143360E+02                                ecore*ucvol(ha*bohr**3)
 ==== Info on pseudopotentials ====
  Norm-conserving pseudopotentials
  Number of pseudopotentials ..    2
  Number of types of atoms   ..    2
  Scalar calculation (no spin-orbit term)
  Nonlocal part applied using Legendre polynomials
  Max number of non-local projectors over l and type   2
  Highest angular momentum +1 .......   2
  Max number of (l,n)   components ..   4
  Max number of (l,m,n) components ..   4

 Pseudo-Core Charge Info: 
   Number of radial points for pseudo-core charge .. 2501
   XC core-correction treatment (optnlxccc) ........    1
   Radius for pseudo-core charge for each type ..... 

  - Atom type    1 has pseudo-core radius ..  5.9900
  - Atom type    2 has pseudo-core radius ..  5.9900

 Info on the Q-grid used for form factors in spline form: 
   Number of q-points for radial functions ffspl ..   3001
   Number of q-points for vlspl ...................   3001
   vloc is computed in Reciprocal Space
   model core charge treated in real-space

  XC functional for type 1 is 11
  Pseudo valence available: yes
  XC functional for type 2 is 11
  Pseudo valence available: yes

=== Gstore parameters ===
 kzone: bz
 qzone: bz
 kfilter: none
 with_vk: 0
 nqibz, nqbz: 7 36
 glob_nq_spin: [36]
 nkibz, nkbz: 7 36
 glob_nk_spin: [36]

 === Gstore MPI distribution ===
P Number of CPUs for parallelism over perturbations: 1
P Number of perturbations treated by this CPU: 12
P Number of CPUs for parallelism over q-points: 1
P Number of CPUs for parallelism over k-points: 1
- Creating HDf5 file with MPI-IO support: io_dir_new/hbn_q_bz_out_GSTORE.nc
 gstore_new: completed. cpu:  0.06 [s] , wall:  0.58 [s] <<< TIME

 Building W(R,r) using q-mesh ngqpt: [2, 2, 1] , with nprocs_rpt: 1
 Gaussian filter with qdamp: 0.1

 Note: this part may take some time depending on the number of MPI procs, ngqpt and nfft points.
 Use boxcutmin < 2.0 (> 1.1) to decrease nfft, reduce memory requirements and speedup the calculation.
 Using rspace_cell method for integration weights: 0
 Total number of R-points in real-space big box: 4
 Number of R-points treated by this MPI rank: 4
 ngfft: 20 20 50
 dvdb_add_lr: 1
 Memory required for W(R,r): 7.3 [Mb] <<< MEM
 IBZ q-point [1/2] completed. cpu:  0.04 [s] , wall:  0.04 [s] <<< TIME
 IBZ q-point [2/2] completed. cpu:  0.17 [s] , wall:  0.18 [s] <<< TIME



 Construction of W(R,r) completed. cpu:  0.22 [s] , wall:  0.23 [s] <<< TIME
 Memory needed for Fourier components u(G):      0.5 [Mb] <<< MEM
 Storing wavefunctions in single precision array as `enable_gw_dpc="no"`
 Memory needed for real-space u(r):      0.0 [Mb] <<< MEM
 wfd_init completed. cpu:  0.01 [s] , wall:  0.04 [s] <<< TIME
 ==== Wavefunctions for GSTORE calculation ====
  Number of irreducible k-points ........ 7
  Number of spinorial components ........ 1
  Number of spin-density components ..... 1
  Number of spin polarizations .......... 1
  Plane wave cutoff energy ..............  20.0
  Max number of G-vectors ............... 1016
  Total number of FFT points ............ 20000
  Number of FFT points treated by me .... 20000


 ==== FFT mesh for wavefunctions ====
  FFT mesh divisions ........................    20   20   50
  Augmented FFT divisions ...................    21   21   50
  FFT algorithm .............................   112
  FFT cache size ............................    16

 Total number of (b,k,s) states stored by this rank: 70
 Memory allocated for Fourier components u(G):      0.5 [Mb] <<< MEM
 Memory needed for wfd%s datastructure:      0.0 [Mb] <<< MEM
 Memory needed for wfd%s(0)%k datastructure:      0.0 [Mb] <<< MEM
 Memory allocated for Kdata array:      0.0 [Mb] <<< MEM



 wfd_read_wfk: Reading file: io_dir_new/hbn_out_DS2_WFK.nc  with iomode: IO_MODE_ETSF , master_only: yes
 About to read: 70  (b, k, s) states in total.
 For spin: 1 , will read: 7  k-points.
 Reading k-point [1/7] spin [1/1] completed. cpu:  0.00 [s] , wall:  0.01 [s] <<< TIME
 Reading k-point [2/7] spin [1/1] completed. cpu:  0.00 [s] , wall:  0.00 [s] <<< TIME
 Reading k-point [3/7] spin [1/1] completed. cpu:  0.00 [s] , wall:  0.00 [s] <<< TIME
 Reading k-point [4/7] spin [1/1] completed. cpu:  0.00 [s] , wall:  0.00 [s] <<< TIME
 Reading k-point [5/7] spin [1/1] completed. cpu:  0.00 [s] , wall:  0.00 [s] <<< TIME
 Reading k-point [6/7] spin [1/1] completed. cpu:  0.00 [s] , wall:  0.00 [s] <<< TIME
 Reading k-point [7/7] spin [1/1] completed. cpu:  0.00 [s] , wall:  0.00 [s] <<< TIME
 WFK IO completed. cpu:  0.00 [s] , wall:  0.01 [s] <<< TIME


 Computing mpw. This may take some time for dense k/q meshes...
 Optimal value of mpw: 1016
 gmax and mpw completed. cpu:  0.02 [s] , wall:  0.02 [s] <<< TIME
- Opening HDf5 file with MPI-IO support: io_dir_new/hbn_q_bz_out_GSTORE.nc
 My q-point [1/36] completed. cpu:  1.64 [s] , wall:  1.64 [s] <<< TIME
 My q-point [2/36] completed. cpu:  1.65 [s] , wall:  1.65 [s] <<< TIME
 My q-point [3/36] completed. cpu:  1.65 [s] , wall:  1.66 [s] <<< TIME
 My q-point [4/36] completed. cpu:  1.69 [s] , wall:  1.69 [s] <<< TIME
 My q-point [5/36] completed. cpu:  1.68 [s] , wall:  1.69 [s] <<< TIME
 My q-point [6/36] completed. cpu:  1.67 [s] , wall:  1.68 [s] <<< TIME
 My q-point [7/36] completed. cpu:  1.67 [s] , wall:  1.68 [s] <<< TIME
 My q-point [8/36] completed. cpu:  1.68 [s] , wall:  1.68 [s] <<< TIME
 My q-point [9/36] completed. cpu:  1.65 [s] , wall:  1.66 [s] <<< TIME
 My q-point [10/36] completed. cpu:  1.67 [s] , wall:  1.67 [s] <<< TIME
 Estimated time to completion: 43.49 [s]
 >>> Will print next iteration when mod(my_iq, 20) == 0) ...
 My q-point [20/36] completed. cpu:  1.63 [s] , wall:  1.63 [s] <<< TIME


 gstore_compute completed. cpu: 01:00 [minutes] , wall: 01:00 [minutes] <<< TIME


 Initializing gstore object from: io_dir_new/hbn_q_bz_out_GSTORE.nc 

 Comparing input crystal with the one from GSTORE file
=== Gstore parameters ===
 kzone: bz
 qzone: bz
 kfilter: none
 with_vk: 0
 nqibz, nqbz: 7 36
 glob_nq_spin: [36]
 nkibz, nkbz: 7 36
 glob_nk_spin: [36]

 === Gstore MPI distribution ===
P Number of CPUs for parallelism over perturbations: 1
P Number of perturbations treated by this CPU: 12
P Number of CPUs for parallelism over q-points: 1
P Number of CPUs for parallelism over k-points: 1
 Local memory for e-ph matrix elements: 11.9  [Mb] <<< MEM
 Reading completed. cpu:  0.01 [s] , wall:  0.01 [s] <<< TIME

== END DATASET(S) ==============================================================
================================================================================
  
 -outvars: echo values of variables after computation  --------
 
 These variables are accessible in NetCDF format (io_dir_new/hbn_q_bz_out_OUT.nc)

-          iomode           3
            acell      4.7163728000E+00  4.7163728000E+00  1.2175836200E+01 Bohr
              amu      1.08110000E+01  1.40067400E+01
        ddb_ngqpt        2    2    1
           diemac      4.50000000E+00
             ecut      2.00000000E+01 Hartree
   eph_ngqpt_fine        6    6    1
         eph_task          11
           etotal      0.0000000000E+00
            fcart      0.0000000000E+00  0.0000000000E+00  0.0000000000E+00
                       0.0000000000E+00  0.0000000000E+00  0.0000000000E+00
                       0.0000000000E+00  0.0000000000E+00  0.0000000000E+00
                       0.0000000000E+00  0.0000000000E+00  0.0000000000E+00
-          fftalg         112
              ixc          11
         kptrlatt        6    0    0      0    6    0      0    0    1
          kptrlen      1.21758362E+01
P           mkmem           7
            natom           4
            nband           9
            ngfft          20      20      50
             nkpt           7
            nstep         100
             nsym          12
           ntypat           2
              occ      2.000000  2.000000  2.000000  2.000000  2.000000  2.000000
                       2.000000  2.000000  0.000000
        optdriver           7
         ph_ngqpt        6    6    6
            rprim      1.0000000000E+00  0.0000000000E+00  0.0000000000E+00
                      -5.0000000000E-01  8.6602540378E-01  0.0000000000E+00
                       0.0000000000E+00  0.0000000000E+00  1.0000000000E+00
          spgroup         194
           strten      0.0000000000E+00  0.0000000000E+00  0.0000000000E+00
                       0.0000000000E+00  0.0000000000E+00  0.0000000000E+00
        symmorphi           0
           symrel      1  0  0   0  1  0   0  0  1       0 -1  0  -1  0  0   0  0 -1
                      -1 -1  0   1  0  0   0  0 -1      -1  0  0   1  1  0   0  0  1
                       0  1  0  -1 -1  0   0  0  1       1  1  0   0 -1  0   0  0 -1
                       1  0  0   0  1  0   0  0 -1       0 -1  0  -1  0  0   0  0  1
                      -1 -1  0   1  0  0   0  0  1      -1  0  0   1  1  0   0  0 -1
                       0  1  0  -1 -1  0   0  0 -1       1  1  0   0 -1  0   0  0  1
           toldfe      1.00000000E-10 Hartree
            typat      1  2  1  2
           xangst      1.2478984965E+00  7.2047453286E-01  0.0000000000E+00
                      -1.2478984965E+00 -7.2047453286E-01  0.0000000000E+00
                      -1.2478984965E+00 -7.2047453286E-01  3.2215875063E+00
                       1.2478984965E+00  7.2047453286E-01  3.2215875063E+00
            xcart      2.3581864000E+00  1.3614995528E+00  0.0000000000E+00
                      -2.3581864000E+00 -1.3614995528E+00  0.0000000000E+00
                      -2.3581864000E+00 -1.3614995528E+00  6.0879181000E+00
                       2.3581864000E+00  1.3614995528E+00  6.0879181000E+00
             xred      6.6666666667E-01  3.3333333333E-01  0.0000000000E+00
                      -6.6666666667E-01 -3.3333333333E-01  0.0000000000E+00
                      -6.6666666667E-01 -3.3333333333E-01  5.0000000000E-01
                       6.6666666667E-01  3.3333333333E-01  5.0000000000E-01
            znucl        5.00000    7.00000

================================================================================
  
 Proc.   0 individual time (sec): cpu=         62.7  wall=         63.9

 Calculation completed.
.Delivered   0 WARNINGs and   4 COMMENTs to log file.

--- !FinalSummary
program: abinit
version: 9.7.4
start_datetime: Thu Sep 22 09:37:09 2022
end_datetime: Thu Sep 22 09:38:13 2022
overall_cpu_time:          62.7
overall_wall_time:          63.9
exit_requested_by_user: no 
timelimit: 0
pseudos: 
    B   : 33584e3c449dab07fef6d5ec47c17801
    N   : 01bdf84d59ae6bc236a02b05a98ec0f5
usepaw: 0
mpi_procs: 1
omp_threads: 1
num_warnings: 0
num_comments: 4
...
