
     Program PWSCF v.5.0        starts on 22Oct2013 at 14:33:30 

     This program is part of the open-source Quantum ESPRESSO suite
     for quantum simulation of materials; please cite
         "P. Giannozzi et al., J. Phys.:Condens. Matter 21 395502 (2009);
          URL http://www.quantum-espresso.org", 
     in publications or presentations arising from this work. More details at
     http://www.quantum-espresso.org/quote.php

     Parallel version (MPI), running on     1 processors

     Current dimensions of program PWSCF are:
     Max number of different atomic species (ntypx) = 10
     Max number of k-points (npk) =  40000
     Max angular momentum in pseudopotentials (lmaxx) =  3
     Waiting for input...
     Reading input from standard input

     Atomic positions and unit cell read from directory:
     ./Si_RIM.save/


     RECOVER from restart file failed: file not found

     Subspace diagonalization in iterative solution of the eigenvalue problem:
     a serial algorithm will be used


     G-vector sticks info
     --------------------
     sticks:   dense  smooth     PW     G-vecs:    dense   smooth      PW
     Sum         211     211     73                 2085     2085     387



     bravais-lattice index     =            2
     lattice parameter (alat)  =      10.1830  a.u.
     unit-cell volume          =     263.9777 (a.u.)^3
     number of atoms/cell      =            2
     number of atomic types    =            1
     number of electrons       =         8.00
     number of Kohn-Sham states=            8
     kinetic-energy cutoff     =      15.0000  Ry
     charge density cutoff     =      60.0000  Ry
     Exchange-correlation      =  SLA  PZ   NOGX NOGC ( 1 1 0 0 0)
     EXX-fraction              =        0.00

     celldm(1)=  10.183000  celldm(2)=   0.000000  celldm(3)=   0.000000
     celldm(4)=   0.000000  celldm(5)=   0.000000  celldm(6)=   0.000000

     crystal axes: (cart. coord. in units of alat)
               a(1) = (  -0.500000   0.000000   0.500000 )  
               a(2) = (   0.000000   0.500000   0.500000 )  
               a(3) = (  -0.500000   0.500000   0.000000 )  

     reciprocal axes: (cart. coord. in units 2 pi/alat)
               b(1) = ( -1.000000 -1.000000  1.000000 )  
               b(2) = (  1.000000  1.000000  1.000000 )  
               b(3) = ( -1.000000  1.000000 -1.000000 )  


     PseudoPot. # 1 for Si read from file:
     ./Si.vbc.UPF
     MD5 check sum: 7974b67c806a44bbea7c2da40a3c413a
     Pseudo is Norm-conserving, Zval =  4.0
     Generated by new atomic code, or converted to UPF format
     Using radial grid of  431 points,  2 beta functions with: 
                l(1) =   0
                l(2) =   1

     atomic species   valence    mass     pseudopotential
        Si             4.00    28.08600     Si( 1.00)

     24 Sym. Ops. (no inversion) found
          (note: 24 additional sym.ops. were found but ignored
           their fractional transations are incommensurate with FFT grid)

                                    s                        frac. trans.

      isym =  1     identity                                     

 cryst.   s( 1) = (     1          0          0      )
                  (     0          1          0      )
                  (     0          0          1      )

 cart.    s( 1) = (  1.0000000  0.0000000  0.0000000 )
                  (  0.0000000  1.0000000  0.0000000 )
                  (  0.0000000  0.0000000  1.0000000 )


      isym =  2     180 deg rotation - cart. axis [0,0,1]        

 cryst.   s( 2) = (     0          1         -1      )
                  (     1          0         -1      )
                  (     0          0         -1      )

 cart.    s( 2) = ( -1.0000000  0.0000000  0.0000000 )
                  (  0.0000000 -1.0000000  0.0000000 )
                  (  0.0000000  0.0000000  1.0000000 )


      isym =  3     180 deg rotation - cart. axis [0,1,0]        

 cryst.   s( 3) = (    -1          0          0      )
                  (    -1          0          1      )
                  (    -1          1          0      )

 cart.    s( 3) = ( -1.0000000  0.0000000  0.0000000 )
                  (  0.0000000  1.0000000  0.0000000 )
                  (  0.0000000  0.0000000 -1.0000000 )


      isym =  4     180 deg rotation - cart. axis [1,0,0]        

 cryst.   s( 4) = (     0         -1          1      )
                  (     0         -1          0      )
                  (     1         -1          0      )

 cart.    s( 4) = (  1.0000000  0.0000000  0.0000000 )
                  (  0.0000000 -1.0000000  0.0000000 )
                  (  0.0000000  0.0000000 -1.0000000 )


      isym =  5     120 deg rotation - cart. axis [-1,-1,-1]     

 cryst.   s( 5) = (    -1          0          1      )
                  (    -1          1          0      )
                  (    -1          0          0      )

 cart.    s( 5) = (  0.0000000  1.0000000  0.0000000 )
                  (  0.0000000  0.0000000  1.0000000 )
                  (  1.0000000  0.0000000  0.0000000 )


      isym =  6     120 deg rotation - cart. axis [-1,1,1]       

 cryst.   s( 6) = (     0          1          0      )
                  (     0          0          1      )
                  (     1          0          0      )

 cart.    s( 6) = (  0.0000000 -1.0000000  0.0000000 )
                  (  0.0000000  0.0000000  1.0000000 )
                  ( -1.0000000  0.0000000  0.0000000 )


      isym =  7     120 deg rotation - cart. axis [1,1,-1]       

 cryst.   s( 7) = (     1          0         -1      )
                  (     0          0         -1      )
                  (     0          1         -1      )

 cart.    s( 7) = (  0.0000000  1.0000000  0.0000000 )
                  (  0.0000000  0.0000000 -1.0000000 )
                  ( -1.0000000  0.0000000  0.0000000 )


      isym =  8     120 deg rotation - cart. axis [1,-1,1]       

 cryst.   s( 8) = (     0         -1          0      )
                  (     1         -1          0      )
                  (     0         -1          1      )

 cart.    s( 8) = (  0.0000000 -1.0000000  0.0000000 )
                  (  0.0000000  0.0000000 -1.0000000 )
                  (  1.0000000  0.0000000  0.0000000 )


      isym =  9     120 deg rotation - cart. axis [1,1,1]        

 cryst.   s( 9) = (     0          0         -1      )
                  (     0          1         -1      )
                  (     1          0         -1      )

 cart.    s( 9) = (  0.0000000  0.0000000  1.0000000 )
                  (  1.0000000  0.0000000  0.0000000 )
                  (  0.0000000  1.0000000  0.0000000 )


      isym = 10     120 deg rotation - cart. axis [-1,1,-1]      

 cryst.   s(10) = (    -1          1          0      )
                  (    -1          0          0      )
                  (    -1          0          1      )

 cart.    s(10) = (  0.0000000  0.0000000  1.0000000 )
                  ( -1.0000000  0.0000000  0.0000000 )
                  (  0.0000000 -1.0000000  0.0000000 )


      isym = 11     120 deg rotation - cart. axis [1,-1,-1]      

 cryst.   s(11) = (     0          0          1      )
                  (     1          0          0      )
                  (     0          1          0      )

 cart.    s(11) = (  0.0000000  0.0000000 -1.0000000 )
                  ( -1.0000000  0.0000000  0.0000000 )
                  (  0.0000000  1.0000000  0.0000000 )


      isym = 12     120 deg rotation - cart. axis [-1,-1,1]      

 cryst.   s(12) = (     1         -1          0      )
                  (     0         -1          1      )
                  (     0         -1          0      )

 cart.    s(12) = (  0.0000000  0.0000000 -1.0000000 )
                  (  1.0000000  0.0000000  0.0000000 )
                  (  0.0000000 -1.0000000  0.0000000 )


      isym = 13     inv. 180 deg rotation - cart. axis [1,1,0]   

 cryst.   s(13) = (     0          1          0      )
                  (     1          0          0      )
                  (     0          0          1      )

 cart.    s(13) = (  0.0000000 -1.0000000  0.0000000 )
                  ( -1.0000000  0.0000000  0.0000000 )
                  (  0.0000000  0.0000000  1.0000000 )


      isym = 14     inv. 180 deg rotation - cart. axis [1,-1,0]  

 cryst.   s(14) = (     1          0         -1      )
                  (     0          1         -1      )
                  (     0          0         -1      )

 cart.    s(14) = (  0.0000000  1.0000000  0.0000000 )
                  (  1.0000000  0.0000000  0.0000000 )
                  (  0.0000000  0.0000000  1.0000000 )


      isym = 15     inv.  90 deg rotation - cart. axis [0,0,-1]  

 cryst.   s(15) = (     0         -1          0      )
                  (     0         -1          1      )
                  (     1         -1          0      )

 cart.    s(15) = (  0.0000000 -1.0000000  0.0000000 )
                  (  1.0000000  0.0000000  0.0000000 )
                  (  0.0000000  0.0000000 -1.0000000 )


      isym = 16     inv.  90 deg rotation - cart. axis [0,0,1]   

 cryst.   s(16) = (    -1          0          1      )
                  (    -1          0          0      )
                  (    -1          1          0      )

 cart.    s(16) = (  0.0000000  1.0000000  0.0000000 )
                  ( -1.0000000  0.0000000  0.0000000 )
                  (  0.0000000  0.0000000 -1.0000000 )


      isym = 17     inv. 180 deg rotation - cart. axis [1,0,1]   

 cryst.   s(17) = (     1          0          0      )
                  (     0          0          1      )
                  (     0          1          0      )

 cart.    s(17) = (  0.0000000  0.0000000 -1.0000000 )
                  (  0.0000000  1.0000000  0.0000000 )
                  ( -1.0000000  0.0000000  0.0000000 )


      isym = 18     inv. 180 deg rotation - cart. axis [-1,0,1]  

 cryst.   s(18) = (    -1          0          0      )
                  (    -1          1          0      )
                  (    -1          0          1      )

 cart.    s(18) = (  0.0000000  0.0000000  1.0000000 )
                  (  0.0000000  1.0000000  0.0000000 )
                  (  1.0000000  0.0000000  0.0000000 )


      isym = 19     inv.  90 deg rotation - cart. axis [0,1,0]   

 cryst.   s(19) = (     0         -1          1      )
                  (     1         -1          0      )
                  (     0         -1          0      )

 cart.    s(19) = (  0.0000000  0.0000000 -1.0000000 )
                  (  0.0000000 -1.0000000  0.0000000 )
                  (  1.0000000  0.0000000  0.0000000 )


      isym = 20     inv.  90 deg rotation - cart. axis [0,-1,0]  

 cryst.   s(20) = (     0          1         -1      )
                  (     0          0         -1      )
                  (     1          0         -1      )

 cart.    s(20) = (  0.0000000  0.0000000  1.0000000 )
                  (  0.0000000 -1.0000000  0.0000000 )
                  ( -1.0000000  0.0000000  0.0000000 )


      isym = 21     inv. 180 deg rotation - cart. axis [0,1,1]   

 cryst.   s(21) = (     1         -1          0      )
                  (     0         -1          0      )
                  (     0         -1          1      )

 cart.    s(21) = (  1.0000000  0.0000000  0.0000000 )
                  (  0.0000000  0.0000000 -1.0000000 )
                  (  0.0000000 -1.0000000  0.0000000 )


      isym = 22     inv. 180 deg rotation - cart. axis [0,1,-1]  

 cryst.   s(22) = (     0          0          1      )
                  (     0          1          0      )
                  (     1          0          0      )

 cart.    s(22) = (  1.0000000  0.0000000  0.0000000 )
                  (  0.0000000  0.0000000  1.0000000 )
                  (  0.0000000  1.0000000  0.0000000 )


      isym = 23     inv.  90 deg rotation - cart. axis [-1,0,0]  

 cryst.   s(23) = (     0          0         -1      )
                  (     1          0         -1      )
                  (     0          1         -1      )

 cart.    s(23) = ( -1.0000000  0.0000000  0.0000000 )
                  (  0.0000000  0.0000000 -1.0000000 )
                  (  0.0000000  1.0000000  0.0000000 )


      isym = 24     inv.  90 deg rotation - cart. axis [1,0,0]   

 cryst.   s(24) = (    -1          1          0      )
                  (    -1          0          1      )
                  (    -1          0          0      )

 cart.    s(24) = ( -1.0000000  0.0000000  0.0000000 )
                  (  0.0000000  0.0000000  1.0000000 )
                  (  0.0000000 -1.0000000  0.0000000 )


     point group T_d (-43m) 
     there are  5 classes
     the character table:

       E     8C3   3C2   6S4   6s_d 
A_1    1.00  1.00  1.00  1.00  1.00
A_2    1.00  1.00  1.00 -1.00 -1.00
E      2.00 -1.00  2.00  0.00  0.00
T_1    3.00  0.00 -1.00  1.00 -1.00
T_2    3.00  0.00 -1.00 -1.00  1.00

     the symmetry operations in each class:
     E        1
     3C2      2    3    4
     8C3      5    7    8    6   12    9   10   11
     6s_d    13   14   17   18   21   22
     6S4     15   16   20   19   23   24

   Cartesian axes

     site n.     atom                  positions (alat units)
         1           Si  tau(   1) = (   0.0000000   0.0000000   0.0000000  )
         2           Si  tau(   2) = (   0.2500000   0.2500000   0.2500000  )

   Crystallographic axes

     site n.     atom                  positions (cryst. coord.)
         1           Si  tau(   1) = (  0.0000000  0.0000000  0.0000000  )
         2           Si  tau(   2) = ( -0.2500000  0.7500000 -0.2500000  )

     number of k points=   100
                       cart. coord. in units 2pi/alat
        k(    1) = (   0.0000000   0.0000000   0.0000000), wk =   0.0200000
        k(    2) = (   0.2077540  -0.2494016  -0.4206825), wk =   0.0200000
        k(    3) = (  -0.3900619  -0.6283295  -0.2316244), wk =   0.0200000
        k(    4) = (  -0.3053675  -0.5404936  -0.6343818), wk =   0.0200000
        k(    5) = (  -0.0127099   0.5419680   0.2659030), wk =   0.0200000
        k(    6) = (   0.2195809   0.3295605   0.6741101), wk =   0.0200000
        k(    7) = (   0.0901425   0.0437605   0.4163168), wk =   0.0200000
        k(    8) = (  -0.4242286  -0.3609034  -0.5307341), wk =   0.0200000
        k(    9) = (  -0.2871951  -0.4752713  -0.4171822), wk =   0.0200000
        k(   10) = (   0.3170669   0.0912477  -0.1682510), wk =   0.0200000
        k(   11) = (  -0.0605640  -0.3656806  -0.4277517), wk =   0.0200000
        k(   12) = (  -0.1115838   0.0202999   0.3369533), wk =   0.0200000
        k(   13) = (   0.3766490   0.2143586  -0.2395185), wk =   0.0200000
        k(   14) = (   0.1341290   0.5847422   0.2243726), wk =   0.0200000
        k(   15) = (  -0.3403914  -0.3943427   0.0180244), wk =   0.0200000
        k(   16) = (  -0.2215977  -0.4904104  -0.0703586), wk =   0.0200000
        k(   17) = (   0.0396802   0.0301578   0.3235254), wk =   0.0200000
        k(   18) = (  -0.2637046  -0.3269550   0.2001992), wk =   0.0200000
        k(   19) = (   0.3883418   0.0670112  -0.1281921), wk =   0.0200000
        k(   20) = (   0.4634617   0.3768027  -0.1328611), wk =   0.0200000
        k(   21) = (   0.3010405   0.2063238   0.4569410), wk =   0.0200000
        k(   22) = (  -0.4914747   0.2136688  -0.2287080), wk =   0.0200000
        k(   23) = (   0.0629550   0.4454428  -0.2079037), wk =   0.0200000
        k(   24) = (   0.0150847   0.4256482   0.4270766), wk =   0.0200000
        k(   25) = (  -0.2212753   0.3551946   0.3368834), wk =   0.0200000
        k(   26) = (   0.1430354  -0.2985126  -0.4822037), wk =   0.0200000
        k(   27) = (   0.4256913   0.4373262   0.1205592), wk =   0.0200000
        k(   28) = (   0.2229946   0.1879642   0.2127482), wk =   0.0200000
        k(   29) = (  -0.0604640   0.0987673   0.1214699), wk =   0.0200000
        k(   30) = (   0.0335783   0.0479496  -0.0005794), wk =   0.0200000
        k(   31) = (  -0.1923963  -0.3583544  -0.2486262), wk =   0.0200000
        k(   32) = (  -0.3351924   0.1352435  -0.1987402), wk =   0.0200000
        k(   33) = (   0.2099674  -0.4101489  -0.1853597), wk =   0.0200000
        k(   34) = (   0.0038847   0.3054534  -0.3730703), wk =   0.0200000
        k(   35) = (  -0.1351278  -0.2342254   0.0996432), wk =   0.0200000
        k(   36) = (   0.0132958   0.1113448  -0.0370870), wk =   0.0200000
        k(   37) = (   0.6940306   0.2487956   0.3845493), wk =   0.0200000
        k(   38) = (  -0.4606217  -0.5408951  -0.1573991), wk =   0.0200000
        k(   39) = (  -0.1978480  -0.0804142   0.1332176), wk =   0.0200000
        k(   40) = (  -0.0516666   0.2278417  -0.2764102), wk =   0.0200000
        k(   41) = (   0.3034749   0.1117410  -0.0333774), wk =   0.0200000
        k(   42) = (  -0.6503392  -0.3654220  -0.1891737), wk =   0.0200000
        k(   43) = (   0.4617329   0.3215391   0.5151883), wk =   0.0200000
        k(   44) = (  -0.5280634  -0.0624813  -0.0789986), wk =   0.0200000
        k(   45) = (  -0.5953880  -0.2563516  -0.4302692), wk =   0.0200000
        k(   46) = (  -0.2884842   0.1947631  -0.1997920), wk =   0.0200000
        k(   47) = (   0.0942439  -0.4723040  -0.2871462), wk =   0.0200000
        k(   48) = (   0.3746987   0.2714853   0.0298659), wk =   0.0200000
        k(   49) = (  -0.3115633   0.3858588   0.0412779), wk =   0.0200000
        k(   50) = (  -0.0748260  -0.0463197  -0.0315395), wk =   0.0200000
        k(   51) = (  -0.4842710  -0.3917437  -0.5525482), wk =   0.0200000
        k(   52) = (   0.2422470   0.4006099   0.6972791), wk =   0.0200000
        k(   53) = (   0.1113017   0.3054818   0.4927345), wk =   0.0200000
        k(   54) = (  -0.5927997  -0.3918476   0.0130847), wk =   0.0200000
        k(   55) = (   0.3065495  -0.1668725  -0.1782167), wk =   0.0200000
        k(   56) = (  -0.3570393  -0.3781450   0.1846133), wk =   0.0200000
        k(   57) = (   0.4164239   0.3643804   0.0506679), wk =   0.0200000
        k(   58) = (   0.2384617  -0.2896789  -0.4540217), wk =   0.0200000
        k(   59) = (   0.0790868   0.4350470   0.3543901), wk =   0.0200000
        k(   60) = (  -0.3249896   0.1840008   0.0530782), wk =   0.0200000
        k(   61) = (  -0.3336330  -0.4491884  -0.4610257), wk =   0.0200000
        k(   62) = (  -0.0678847   0.0616491   0.2607824), wk =   0.0200000
        k(   63) = (  -0.2569870  -0.3072085   0.2035787), wk =   0.0200000
        k(   64) = (   0.2936215   0.4145439   0.0035124), wk =   0.0200000
        k(   65) = (  -0.1222894   0.2887316   0.1252087), wk =   0.0200000
        k(   66) = (   0.0812594   0.0359405  -0.0903038), wk =   0.0200000
        k(   67) = (  -0.0116610   0.4648887   0.0666687), wk =   0.0200000
        k(   68) = (  -0.0397390  -0.5003636  -0.4161162), wk =   0.0200000
        k(   69) = (   0.4857783   0.1802990   0.4369915), wk =   0.0200000
        k(   70) = (   0.4357319   0.5195203   0.4636139), wk =   0.0200000
        k(   71) = (  -0.5030793  -0.2971359  -0.6762342), wk =   0.0200000
        k(   72) = (   0.0760442  -0.1388486   0.0572698), wk =   0.0200000
        k(   73) = (  -0.0360843  -0.3819550   0.2828235), wk =   0.0200000
        k(   74) = (  -0.3606389   0.1253951   0.0176079), wk =   0.0200000
        k(   75) = (   0.0419625   0.4292925   0.4454982), wk =   0.0200000
        k(   76) = (   0.0539220  -0.0212862   0.3756065), wk =   0.0200000
        k(   77) = (   0.2127588   0.3464396  -0.2453485), wk =   0.0200000
        k(   78) = (  -0.1203393   0.0793721   0.1948784), wk =   0.0200000
        k(   79) = (  -0.2483003  -0.0233409  -0.2651320), wk =   0.0200000
        k(   80) = (   0.1700382   0.0791732  -0.0228535), wk =   0.0200000
        k(   81) = (  -0.1953937   0.2300009  -0.2434475), wk =   0.0200000
        k(   82) = (   0.3583977   0.4241002  -0.0817942), wk =   0.0200000
        k(   83) = (   0.2572263   0.4951258   0.1090600), wk =   0.0200000
        k(   84) = (  -0.3140841  -0.5290750  -0.1848002), wk =   0.0200000
        k(   85) = (   0.0507548  -0.3814120   0.2543326), wk =   0.0200000
        k(   86) = (  -0.1694832   0.4261888   0.1305139), wk =   0.0200000
        k(   87) = (  -0.1752548   0.1476424  -0.4179417), wk =   0.0200000
        k(   88) = (   0.0716737   0.2950449   0.1792326), wk =   0.0200000
        k(   89) = (   0.1398704  -0.0380749  -0.1159636), wk =   0.0200000
        k(   90) = (  -0.7225673  -0.4636531  -0.2226945), wk =   0.0200000
        k(   91) = (   0.2487262   0.0662957  -0.1323453), wk =   0.0200000
        k(   92) = (   0.1582333  -0.2912021  -0.2163521), wk =   0.0200000
        k(   93) = (   0.0075214  -0.3633737  -0.1472845), wk =   0.0200000
        k(   94) = (  -0.3743685  -0.0727721   0.2852932), wk =   0.0200000
        k(   95) = (   0.3639406  -0.1587576   0.3192463), wk =   0.0200000
        k(   96) = (   0.1252634   0.3690722   0.3214347), wk =   0.0200000
        k(   97) = (  -0.3747518  -0.0181127  -0.0783312), wk =   0.0200000
        k(   98) = (  -0.4103445   0.2527437  -0.1945750), wk =   0.0200000
        k(   99) = (   0.3804659   0.5998814   0.2420897), wk =   0.0200000
        k(  100) = (  -0.4366620  -0.3469485   0.0062238), wk =   0.0200000

                       cryst. coord.
        k(    1) = (   0.0000000   0.0000000   0.0000000), wk =   0.0200000
        k(    2) = (  -0.3142183  -0.3350420  -0.2285778), wk =   0.0200000
        k(    3) = (   0.0792188  -0.4299770  -0.1191338), wk =   0.0200000
        k(    4) = (  -0.1645071  -0.5874377  -0.1175631), wk =   0.0200000
        k(    5) = (   0.1393064   0.4039355   0.2773390), wk =   0.0200000
        k(    6) = (   0.2272646   0.5018353   0.0549898), wk =   0.0200000
        k(    7) = (   0.1630871   0.2300386  -0.0231910), wk =   0.0200000
        k(    8) = (  -0.0532527  -0.4458187   0.0316626), wk =   0.0200000
        k(    9) = (  -0.0649936  -0.4462268  -0.0940381), wk =   0.0200000
        k(   10) = (  -0.2426589  -0.0385017  -0.1129096), wk =   0.0200000
        k(   11) = (  -0.1835939  -0.3967162  -0.1525583), wk =   0.0200000
        k(   12) = (   0.2242686   0.1786266   0.0659418), wk =   0.0200000
        k(   13) = (  -0.3080837  -0.0125799  -0.0811452), wk =   0.0200000
        k(   14) = (   0.0451218   0.4045574   0.2253066), wk =   0.0200000
        k(   15) = (   0.1792079  -0.1881591  -0.0269756), wk =   0.0200000
        k(   16) = (   0.0756196  -0.2803845  -0.1344064), wk =   0.0200000
        k(   17) = (   0.1419226   0.1768416  -0.0047612), wk =   0.0200000
        k(   18) = (   0.2319519  -0.0633779  -0.0316252), wk =   0.0200000
        k(   19) = (  -0.2582669  -0.0305904  -0.1606653), wk =   0.0200000
        k(   20) = (  -0.2981614   0.1219708  -0.0433295), wk =   0.0200000
        k(   21) = (   0.0779502   0.3316324  -0.0473583), wk =   0.0200000
        k(   22) = (   0.1313834  -0.0075196   0.3525717), wk =   0.0200000
        k(   23) = (  -0.1354294   0.1187696   0.1912439), wk =   0.0200000
        k(   24) = (   0.2059959   0.4263624   0.2052817), wk =   0.0200000
        k(   25) = (   0.2790794   0.3460390   0.2882349), wk =   0.0200000
        k(   26) = (  -0.3126196  -0.3903582  -0.2207740), wk =   0.0200000
        k(   27) = (  -0.1525661   0.2789427   0.0058175), wk =   0.0200000
        k(   28) = (  -0.0051232   0.2003562  -0.0175152), wk =   0.0200000
        k(   29) = (   0.0909670   0.1101186   0.0796156), wk =   0.0200000
        k(   30) = (  -0.0170788   0.0236851   0.0071857), wk =   0.0200000
        k(   31) = (  -0.0281149  -0.3034903  -0.0829791), wk =   0.0200000
        k(   32) = (   0.0682261  -0.0317484   0.2352180), wk =   0.0200000
        k(   33) = (  -0.1976635  -0.2977543  -0.3100581), wk =   0.0200000
        k(   34) = (  -0.1884775  -0.0338085   0.1507843), wk =   0.0200000
        k(   35) = (   0.1173855  -0.0672911  -0.0495488), wk =   0.0200000
        k(   36) = (  -0.0251914   0.0371289   0.0490245), wk =   0.0200000
        k(   37) = (  -0.1547407   0.3166724  -0.2226175), wk =   0.0200000
        k(   38) = (   0.1516113  -0.3491471  -0.0401367), wk =   0.0200000
        k(   39) = (   0.1655328   0.0264017   0.0587169), wk =   0.0200000
        k(   40) = (  -0.1123718  -0.0242842   0.1397541), wk =   0.0200000
        k(   41) = (  -0.1684261   0.0391818  -0.0958670), wk =   0.0200000
        k(   42) = (   0.2305828  -0.2772979   0.1424586), wk =   0.0200000
        k(   43) = (   0.0267277   0.4183637  -0.0700969), wk =   0.0200000
        k(   44) = (   0.2245324  -0.0707399   0.2327910), wk =   0.0200000
        k(   45) = (   0.0825594  -0.3433104   0.1695182), wk =   0.0200000
        k(   46) = (   0.0443461  -0.0025145   0.2416237), wk =   0.0200000
        k(   47) = (  -0.1906951  -0.3797251  -0.2832739), wk =   0.0200000
        k(   48) = (  -0.1724164   0.1506756  -0.0516067), wk =   0.0200000
        k(   49) = (   0.1764206   0.2135683   0.3487111), wk =   0.0200000
        k(   50) = (   0.0216433  -0.0389296   0.0142532), wk =   0.0200000
        k(   51) = (  -0.0341386  -0.4721460   0.0462637), wk =   0.0200000
        k(   52) = (   0.2275161   0.5489445   0.0791815), wk =   0.0200000
        k(   53) = (   0.1907164   0.3991081   0.0970901), wk =   0.0200000
        k(   54) = (   0.3029422  -0.1893815   0.1004761), wk =   0.0200000
        k(   55) = (  -0.2423831  -0.1725446  -0.2367110), wk =   0.0200000
        k(   56) = (   0.2708263  -0.0967659  -0.0105529), wk =   0.0200000
        k(   57) = (  -0.1828780   0.2075241  -0.0260218), wk =   0.0200000
        k(   58) = (  -0.3462417  -0.3718503  -0.2640703), wk =   0.0200000
        k(   59) = (   0.1376516   0.3947186   0.1779801), wk =   0.0200000
        k(   60) = (   0.1890339   0.1185395   0.2544952), wk =   0.0200000
        k(   61) = (  -0.0636963  -0.4551070  -0.0577777), wk =   0.0200000
        k(   62) = (   0.1643336   0.1612158   0.0647669), wk =   0.0200000
        k(   63) = (   0.2302829  -0.0518149  -0.0251107), wk =   0.0200000
        k(   64) = (  -0.1450545   0.2090282   0.0604612), wk =   0.0200000
        k(   65) = (   0.1237490   0.2069701   0.2055105), wk =   0.0200000
        k(   66) = (  -0.0857816  -0.0271817  -0.0226594), wk =   0.0200000
        k(   67) = (   0.0391649   0.2657787   0.2382748), wk =   0.0200000
        k(   68) = (  -0.1881886  -0.4582399  -0.2303123), wk =   0.0200000
        k(   69) = (  -0.0243934   0.3086452  -0.1527397), wk =   0.0200000
        k(   70) = (   0.0139410   0.4915671   0.0418942), wk =   0.0200000
        k(   71) = (  -0.0865775  -0.4866851   0.1029717), wk =   0.0200000
        k(   72) = (  -0.0093872  -0.0407894  -0.1074464), wk =   0.0200000
        k(   73) = (   0.1594539  -0.0495657  -0.1729353), wk =   0.0200000
        k(   74) = (   0.1891234   0.0715015   0.2430170), wk =   0.0200000
        k(   75) = (   0.2017678   0.4373954   0.1936650), wk =   0.0200000
        k(   76) = (   0.1608423   0.1771602  -0.0376041), wk =   0.0200000
        k(   77) = (  -0.2290536   0.0505456   0.0668404), wk =   0.0200000
        k(   78) = (   0.1576088   0.1371253   0.0998557), wk =   0.0200000
        k(   79) = (  -0.0084158  -0.1442364   0.1124797), wk =   0.0200000
        k(   80) = (  -0.0964458   0.0281599  -0.0454325), wk =   0.0200000
        k(   81) = (  -0.0240269  -0.0067233   0.2126973), wk =   0.0200000
        k(   82) = (  -0.2200959   0.1711530   0.0328512), wk =   0.0200000
        k(   83) = (  -0.0740832   0.3020929   0.1189497), wk =   0.0200000
        k(   84) = (   0.0646419  -0.3569376  -0.1074954), wk =   0.0200000
        k(   85) = (   0.1017889  -0.0635397  -0.2160834), wk =   0.0200000
        k(   86) = (   0.1499986   0.2783513   0.2978360), wk =   0.0200000
        k(   87) = (  -0.1213435  -0.1351497   0.1614486), wk =   0.0200000
        k(   88) = (   0.0537794   0.2371388   0.1116856), wk =   0.0200000
        k(   89) = (  -0.1279170  -0.0770192  -0.0889727), wk =   0.0200000
        k(   90) = (   0.2499364  -0.3431738   0.1294571), wk =   0.0200000
        k(   91) = (  -0.1905358  -0.0330248  -0.0912152), wk =   0.0200000
        k(   92) = (  -0.1872927  -0.2537771  -0.2247177), wk =   0.0200000
        k(   93) = (  -0.0774030  -0.2553291  -0.1854476), wk =   0.0200000
        k(   94) = (   0.3298309   0.1062606   0.1507982), wk =   0.0200000
        k(   95) = (  -0.0223472   0.0802443  -0.2613491), wk =   0.0200000
        k(   96) = (   0.0980857   0.3452535   0.1219044), wk =   0.0200000
        k(   97) = (   0.1482103  -0.0482219   0.1783196), wk =   0.0200000
        k(   98) = (   0.1078848   0.0290844   0.3315441), wk =   0.0200000
        k(   99) = (  -0.0691881   0.4209855   0.1097077), wk =   0.0200000
        k(  100) = (   0.2214429  -0.1703623   0.0448568), wk =   0.0200000

     Dense  grid:     2085 G-vectors     FFT dimensions: (  18,  18,  18)

     Largest allocated arrays     est. size (Mb)     dimensions
        Kohn-Sham Wavefunctions         0.03 Mb     (    271,    8)
        NL pseudopotentials             0.03 Mb     (    271,    8)
        Each V/rho on FFT grid          0.09 Mb     (   5832)
        Each G-vector array             0.02 Mb     (   2085)
        G-vector shells                 0.00 Mb     (     54)
     Largest temporary arrays     est. size (Mb)     dimensions
        Auxiliary wavefunctions         0.13 Mb     (    271,   32)
        Each subspace H/S matrix        0.02 Mb     (  32,  32)
        Each <psi_i|beta_j> matrix      0.00 Mb     (      8,    8)

     The potential is recalculated from file :
     ./Si_RIM.save/charge-density.dat

     Starting wfc are    8 randomized atomic wfcs

     total cpu time spent up to now is        0.2 secs

     per-process dynamical memory:     3.5 Mb

     Band Structure Calculation
     Davidson diagonalization with overlap

     Computing kpt #:     1
     total cpu time spent up to now is        0.2 secs

     Computing kpt #:     2
     total cpu time spent up to now is        0.4 secs

     Computing kpt #:     3
     total cpu time spent up to now is        0.5 secs

     Computing kpt #:     4
     total cpu time spent up to now is        0.7 secs

     Computing kpt #:     5
     total cpu time spent up to now is        0.8 secs

     Computing kpt #:     6
     total cpu time spent up to now is        1.0 secs

     Computing kpt #:     7
     total cpu time spent up to now is        1.1 secs

     Computing kpt #:     8
     total cpu time spent up to now is        1.3 secs

     Computing kpt #:     9
     total cpu time spent up to now is        1.4 secs

     Computing kpt #:    10
     total cpu time spent up to now is        1.6 secs

     Computing kpt #:    11
     total cpu time spent up to now is        1.7 secs

     Computing kpt #:    12
     total cpu time spent up to now is        1.8 secs

     Computing kpt #:    13
     total cpu time spent up to now is        1.9 secs

     Computing kpt #:    14
     total cpu time spent up to now is        2.1 secs

     Computing kpt #:    15
     total cpu time spent up to now is        2.2 secs

     Computing kpt #:    16
     total cpu time spent up to now is        2.3 secs

     Computing kpt #:    17
     total cpu time spent up to now is        2.5 secs

     Computing kpt #:    18
     total cpu time spent up to now is        2.7 secs

     Computing kpt #:    19
     total cpu time spent up to now is        2.8 secs

     Computing kpt #:    20
     total cpu time spent up to now is        3.0 secs

     Computing kpt #:    21
     total cpu time spent up to now is        3.1 secs

     Computing kpt #:    22
     total cpu time spent up to now is        3.3 secs

     Computing kpt #:    23
     total cpu time spent up to now is        3.4 secs

     Computing kpt #:    24
     total cpu time spent up to now is        3.6 secs

     Computing kpt #:    25
     total cpu time spent up to now is        3.8 secs

     Computing kpt #:    26
     total cpu time spent up to now is        3.9 secs

     Computing kpt #:    27
     total cpu time spent up to now is        4.1 secs

     Computing kpt #:    28
     total cpu time spent up to now is        4.3 secs

     Computing kpt #:    29
     total cpu time spent up to now is        4.4 secs

     Computing kpt #:    30
     total cpu time spent up to now is        4.5 secs

     Computing kpt #:    31
     total cpu time spent up to now is        4.6 secs

     Computing kpt #:    32
     total cpu time spent up to now is        4.8 secs

     Computing kpt #:    33
     total cpu time spent up to now is        4.9 secs

     Computing kpt #:    34
     total cpu time spent up to now is        5.1 secs

     Computing kpt #:    35
     total cpu time spent up to now is        5.3 secs

     Computing kpt #:    36
     total cpu time spent up to now is        5.4 secs

     Computing kpt #:    37
     total cpu time spent up to now is        5.5 secs

     Computing kpt #:    38
     total cpu time spent up to now is        5.6 secs

     Computing kpt #:    39
     total cpu time spent up to now is        5.8 secs

     Computing kpt #:    40
     total cpu time spent up to now is        6.0 secs

     Computing kpt #:    41
     total cpu time spent up to now is        6.2 secs

     Computing kpt #:    42
     total cpu time spent up to now is        6.4 secs

     Computing kpt #:    43
     total cpu time spent up to now is        6.5 secs

     Computing kpt #:    44
     total cpu time spent up to now is        6.7 secs

     Computing kpt #:    45
     total cpu time spent up to now is        6.8 secs

     Computing kpt #:    46
     total cpu time spent up to now is        7.0 secs

     Computing kpt #:    47
     total cpu time spent up to now is        7.1 secs

     Computing kpt #:    48
     total cpu time spent up to now is        7.3 secs

     Computing kpt #:    49
     total cpu time spent up to now is        7.5 secs

     Computing kpt #:    50
     total cpu time spent up to now is        7.6 secs

     Computing kpt #:    51
     total cpu time spent up to now is        7.7 secs

     Computing kpt #:    52
     total cpu time spent up to now is        7.8 secs

     Computing kpt #:    53
     total cpu time spent up to now is        8.0 secs

     Computing kpt #:    54
     total cpu time spent up to now is        8.2 secs

     Computing kpt #:    55
     total cpu time spent up to now is        8.3 secs

     Computing kpt #:    56
     total cpu time spent up to now is        8.5 secs

     Computing kpt #:    57
     total cpu time spent up to now is        8.7 secs

     Computing kpt #:    58
     total cpu time spent up to now is        8.8 secs

     Computing kpt #:    59
     total cpu time spent up to now is        9.0 secs

     Computing kpt #:    60
     total cpu time spent up to now is        9.2 secs

     Computing kpt #:    61
     total cpu time spent up to now is        9.4 secs

     Computing kpt #:    62
     total cpu time spent up to now is        9.6 secs

     Computing kpt #:    63
     total cpu time spent up to now is        9.7 secs

     Computing kpt #:    64
     total cpu time spent up to now is        9.9 secs

     Computing kpt #:    65
     total cpu time spent up to now is       10.0 secs

     Computing kpt #:    66
     total cpu time spent up to now is       10.2 secs

     Computing kpt #:    67
     total cpu time spent up to now is       10.2 secs

     Computing kpt #:    68
     total cpu time spent up to now is       10.4 secs

     Computing kpt #:    69
     total cpu time spent up to now is       10.6 secs

     Computing kpt #:    70
     total cpu time spent up to now is       10.8 secs

     Computing kpt #:    71
     total cpu time spent up to now is       10.9 secs

     Computing kpt #:    72
     total cpu time spent up to now is       11.1 secs

     Computing kpt #:    73
     total cpu time spent up to now is       11.2 secs

     Computing kpt #:    74
     total cpu time spent up to now is       11.3 secs

     Computing kpt #:    75
     total cpu time spent up to now is       11.5 secs

     Computing kpt #:    76
     total cpu time spent up to now is       11.7 secs

     Computing kpt #:    77
     total cpu time spent up to now is       11.9 secs

     Computing kpt #:    78
     total cpu time spent up to now is       12.0 secs

     Computing kpt #:    79
     total cpu time spent up to now is       12.2 secs

     Computing kpt #:    80
     total cpu time spent up to now is       12.3 secs

     Computing kpt #:    81
     total cpu time spent up to now is       12.5 secs

     Computing kpt #:    82
     total cpu time spent up to now is       12.7 secs

     Computing kpt #:    83
     total cpu time spent up to now is       12.8 secs

     Computing kpt #:    84
     total cpu time spent up to now is       13.0 secs

     Computing kpt #:    85
     total cpu time spent up to now is       13.1 secs

     Computing kpt #:    86
     total cpu time spent up to now is       13.3 secs

     Computing kpt #:    87
     total cpu time spent up to now is       13.4 secs

     Computing kpt #:    88
     total cpu time spent up to now is       13.6 secs

     Computing kpt #:    89
     total cpu time spent up to now is       13.7 secs

     Computing kpt #:    90
     total cpu time spent up to now is       13.9 secs

     Computing kpt #:    91
     total cpu time spent up to now is       14.0 secs

     Computing kpt #:    92
     total cpu time spent up to now is       14.2 secs

     Computing kpt #:    93
     total cpu time spent up to now is       14.3 secs

     Computing kpt #:    94
     total cpu time spent up to now is       14.5 secs

     Computing kpt #:    95
     total cpu time spent up to now is       14.7 secs

     Computing kpt #:    96
     total cpu time spent up to now is       14.9 secs

     Computing kpt #:    97
     total cpu time spent up to now is       15.1 secs

     Computing kpt #:    98
     total cpu time spent up to now is       15.2 secs

     Computing kpt #:    99
     total cpu time spent up to now is       15.4 secs

     Computing kpt #:   100
     total cpu time spent up to now is       15.5 secs

     ethr =  1.25E-12,  avg # of iterations = 22.8

     total cpu time spent up to now is       15.5 secs

     End of band structure calculation

          k = 0.0000 0.0000 0.0000     band energies (ev):

    -5.5465   6.6097   6.6097   6.6097   9.0506   9.0506   9.0506  10.1349

     occupation numbers 
     0.0200   0.0200   0.0200   0.0200   0.0000   0.0000   0.0000   0.0000

          k = 0.2078-0.2494-0.4207     band energies (ev):

    -4.3315   1.8462   4.9969   5.3274   8.9004   9.8889  10.7675  12.0933

     occupation numbers 
     0.0200   0.0200   0.0200   0.0200   0.0000   0.0000   0.0000   0.0000

          k =-0.3901-0.6283-0.2316     band energies (ev):

    -3.1295   0.1224   3.6207   4.6974   8.9787   9.9956  11.6280  12.6651

     occupation numbers 
     0.0200   0.0200   0.0200   0.0200   0.0000   0.0000   0.0000   0.0000

          k =-0.3054-0.5405-0.6344     band energies (ev):

    -2.8650  -0.4381   3.8286   4.8984   8.8840   9.9037  10.9666  14.4754

     occupation numbers 
     0.0200   0.0200   0.0200   0.0200   0.0000   0.0000   0.0000   0.0000

          k =-0.0127 0.5420 0.2659     band energies (ev):

    -3.9712   1.9415   3.4848   4.8584   8.9337  10.3127  10.7238  12.4902

     occupation numbers 
     0.0200   0.0200   0.0200   0.0200   0.0000   0.0000   0.0000   0.0000

          k = 0.2196 0.3296 0.6741     band energies (ev):

    -3.0500   0.2472   3.3438   4.4421   8.4659  10.8571  11.7484  12.1611

     occupation numbers 
     0.0200   0.0200   0.0200   0.0200   0.0000   0.0000   0.0000   0.0000

          k = 0.0901 0.0438 0.4163     band energies (ev):

    -4.7421   3.5848   4.8377   5.0858   8.0735  10.3473  11.3255  11.5535

     occupation numbers 
     0.0200   0.0200   0.0200   0.0200   0.0000   0.0000   0.0000   0.0000

          k =-0.4242-0.3609-0.5307     band energies (ev):

    -3.2682  -0.2404   4.8639   5.2269   8.6014   9.6931  10.1664  14.1498

     occupation numbers 
     0.0200   0.0200   0.0200   0.0200   0.0000   0.0000   0.0000   0.0000

          k =-0.2872-0.4753-0.4172     band energies (ev):

    -3.5795   0.2872   4.6769   5.4073   8.7447   9.8071  10.2070  13.9917

     occupation numbers 
     0.0200   0.0200   0.0200   0.0200   0.0000   0.0000   0.0000   0.0000

          k = 0.3171 0.0912-0.1683     band energies (ev):

    -4.9513   3.6434   5.2066   5.8596   8.9238   9.8760  10.5928  11.6889

     occupation numbers 
     0.0200   0.0200   0.0200   0.0200   0.0000   0.0000   0.0000   0.0000

          k =-0.0606-0.3657-0.4278     band energies (ev):

    -4.1693   1.9761   3.5918   5.6632   9.4817  10.1527  10.9818  12.0730

     occupation numbers 
     0.0200   0.0200   0.0200   0.0200   0.0000   0.0000   0.0000   0.0000

          k =-0.1116 0.0203 0.3370     band energies (ev):

    -4.9956   4.1366   5.0844   5.6334   8.4471  10.4374  10.8643  11.1975

     occupation numbers 
     0.0200   0.0200   0.0200   0.0200   0.0000   0.0000   0.0000   0.0000

          k = 0.3766 0.2144-0.2395     band energies (ev):

    -4.4892   2.1086   5.2644   5.5094   8.8892   9.7745  10.5733  12.3822

     occupation numbers 
     0.0200   0.0200   0.0200   0.0200   0.0000   0.0000   0.0000   0.0000

          k = 0.1341 0.5847 0.2244     band energies (ev):

    -3.7760   1.4904   3.8040   4.5326   8.2997  10.3044  11.3815  12.3119

     occupation numbers 
     0.0200   0.0200   0.0200   0.0200   0.0000   0.0000   0.0000   0.0000

          k =-0.3404-0.3943 0.0180     band energies (ev):

    -4.3735   2.4307   3.7191   5.8191   9.5893  10.0625  10.8359  11.9484

     occupation numbers 
     0.0200   0.0200   0.0200   0.0200   0.0000   0.0000   0.0000   0.0000

          k =-0.2216-0.4904-0.0704     band energies (ev):

    -4.2660   2.3371   4.0398   5.0578   8.6593  10.4698  10.8348  11.9057

     occupation numbers 
     0.0200   0.0200   0.0200   0.0200   0.0000   0.0000   0.0000   0.0000

          k = 0.0397 0.0302 0.3235     band energies (ev):

    -5.0780   4.5654   5.3691   5.4293   8.2313  10.6582  10.8349  11.0496

     occupation numbers 
     0.0200   0.0200   0.0200   0.0200   0.0000   0.0000   0.0000   0.0000

          k =-0.2637-0.3270 0.2002     band energies (ev):

    -4.6116   2.3366   5.3306   5.8231   8.8138   9.8189  10.3241  12.8371

     occupation numbers 
     0.0200   0.0200   0.0200   0.0200   0.0000   0.0000   0.0000   0.0000

          k = 0.3883 0.0670-0.1282     band energies (ev):

    -4.7946   3.5209   4.9088   5.3421   8.4099  10.5047  11.0542  11.2317

     occupation numbers 
     0.0200   0.0200   0.0200   0.0200   0.0000   0.0000   0.0000   0.0000

          k = 0.4635 0.3768-0.1329     band energies (ev):

    -3.9511   1.3693   3.8063   5.4858   9.3639   9.9411  10.9387  12.4275

     occupation numbers 
     0.0200   0.0200   0.0200   0.0200   0.0000   0.0000   0.0000   0.0000

          k = 0.3010 0.2063 0.4569     band energies (ev):

    -4.0880   1.3765   4.6248   5.3307   8.9668   9.8712  10.7901  12.3044

     occupation numbers 
     0.0200   0.0200   0.0200   0.0200   0.0000   0.0000   0.0000   0.0000

          k =-0.4915 0.2137-0.2287     band energies (ev):

    -4.0878   1.5563   4.6594   4.9023   8.6766  10.3948  11.1826  11.5050

     occupation numbers 
     0.0200   0.0200   0.0200   0.0200   0.0000   0.0000   0.0000   0.0000

          k = 0.0630 0.4454-0.2079     band energies (ev):

    -4.4751   2.7240   4.2766   5.2974   8.7127  10.4876  10.8663  11.5649

     occupation numbers 
     0.0200   0.0200   0.0200   0.0200   0.0000   0.0000   0.0000   0.0000

          k = 0.0151 0.4256 0.4271     band energies (ev):

    -3.9913   1.7889   3.1875   5.5836   9.3038  10.7055  11.0607  12.3493

     occupation numbers 
     0.0200   0.0200   0.0200   0.0200   0.0000   0.0000   0.0000   0.0000

          k =-0.2213 0.3552 0.3369     band energies (ev):

    -4.3127   1.6255   5.0425   5.7653   8.7550   9.9390  10.2064  13.4298

     occupation numbers 
     0.0200   0.0200   0.0200   0.0200   0.0000   0.0000   0.0000   0.0000

          k = 0.1430-0.2985-0.4822     band energies (ev):

    -4.0774   1.6235   4.1164   5.2573   9.0930  10.0662  11.2473  11.6516

     occupation numbers 
     0.0200   0.0200   0.0200   0.0200   0.0000   0.0000   0.0000   0.0000

          k = 0.4257 0.4373 0.1206     band energies (ev):

    -3.8995   1.3224   3.6291   5.5509   9.2265  10.4560  10.6251  12.9741

     occupation numbers 
     0.0200   0.0200   0.0200   0.0200   0.0000   0.0000   0.0000   0.0000

          k = 0.2230 0.1880 0.2127     band energies (ev):

    -4.9871   3.3669   5.8591   6.0190   8.7818   9.8353   9.9933  12.7984

     occupation numbers 
     0.0200   0.0200   0.0200   0.0200   0.0000   0.0000   0.0000   0.0000

          k =-0.0605 0.0988 0.1215     band energies (ev):

    -5.4330   5.5318   6.2587   6.4823   9.1408   9.2541   9.4393  10.9380

     occupation numbers 
     0.0200   0.0200   0.0200   0.0200   0.0000   0.0000   0.0000   0.0000

          k = 0.0336 0.0479-0.0006     band energies (ev):

    -5.5322   6.4560   6.5366   6.5983   9.0511   9.1000   9.1328  10.2334

     occupation numbers 
     0.0200   0.0200   0.0200   0.0200   0.0000   0.0000   0.0000   0.0000

          k =-0.1924-0.3584-0.2486     band energies (ev):

    -4.5651   2.2926   5.2091   5.6806   8.9254   9.7676  10.5121  12.4269

     occupation numbers 
     0.0200   0.0200   0.0200   0.0200   0.0000   0.0000   0.0000   0.0000

          k =-0.3352 0.1352-0.1987     band energies (ev):

    -4.8081   3.0838   5.2117   5.7708   9.0094   9.7762  10.6112  11.9085

     occupation numbers 
     0.0200   0.0200   0.0200   0.0200   0.0000   0.0000   0.0000   0.0000

          k = 0.2100-0.4101-0.1854     band energies (ev):

    -4.4791   2.2682   5.0647   5.2720   8.8648  10.0204  10.9047  11.6991

     occupation numbers 
     0.0200   0.0200   0.0200   0.0200   0.0000   0.0000   0.0000   0.0000

          k = 0.0039 0.3055-0.3731     band energies (ev):

    -4.5400   2.7709   3.9713   5.9143   9.6950   9.8070  10.7288  11.8428

     occupation numbers 
     0.0200   0.0200   0.0200   0.0200   0.0000   0.0000   0.0000   0.0000

          k =-0.1351-0.2342 0.0996     band energies (ev):

    -5.1898   4.3458   5.7695   6.1432   9.0335   9.5181  10.0926  11.8402

     occupation numbers 
     0.0200   0.0200   0.0200   0.0200   0.0000   0.0000   0.0000   0.0000

          k = 0.0133 0.1113-0.0371     band energies (ev):

    -5.4901   6.1277   6.3501   6.4659   8.9457   9.3316   9.3541  10.5061

     occupation numbers 
     0.0200   0.0200   0.0200   0.0200   0.0000   0.0000   0.0000   0.0000

          k = 0.6940 0.2488 0.3845     band energies (ev):

    -2.8462  -0.1027   3.3022   4.4881   8.7030  10.4410  12.0199  12.5754

     occupation numbers 
     0.0200   0.0200   0.0200   0.0200   0.0000   0.0000   0.0000   0.0000

          k =-0.4606-0.5409-0.1574     band energies (ev):

    -3.3625   0.5077   3.3245   5.1378   9.0727  10.2500  11.2616  13.1430

     occupation numbers 
     0.0200   0.0200   0.0200   0.0200   0.0000   0.0000   0.0000   0.0000

          k =-0.1978-0.0804 0.1332     band energies (ev):

    -5.2767   4.7114   5.8801   6.3105   9.0958   9.4222   9.8544  11.6372

     occupation numbers 
     0.0200   0.0200   0.0200   0.0200   0.0000   0.0000   0.0000   0.0000

          k =-0.0517 0.2278-0.2764     band energies (ev):

    -4.9798   3.7373   4.9477   6.2263   9.3938   9.6453  10.1406  12.1028

     occupation numbers 
     0.0200   0.0200   0.0200   0.0200   0.0000   0.0000   0.0000   0.0000

          k = 0.3035 0.1117-0.0334     band energies (ev):

    -5.0883   4.3446   5.2763   5.8129   8.5886  10.2039  10.5898  11.3845

     occupation numbers 
     0.0200   0.0200   0.0200   0.0200   0.0000   0.0000   0.0000   0.0000

          k =-0.6503-0.3654-0.1892     band energies (ev):

    -3.1178   0.3253   3.3288   4.4930   8.8893  10.3246  11.9108  12.2247

     occupation numbers 
     0.0200   0.0200   0.0200   0.0200   0.0000   0.0000   0.0000   0.0000

          k = 0.4617 0.3215 0.5152     band energies (ev):

    -3.2834  -0.1697   4.6160   5.3006   8.7143   9.7685  10.1711  14.2783

     occupation numbers 
     0.0200   0.0200   0.0200   0.0200   0.0000   0.0000   0.0000   0.0000

          k =-0.5281-0.0625-0.0790     band energies (ev):

    -4.2774   2.6846   4.3828   4.5292   7.6949   9.4959  12.2782  12.4781

     occupation numbers 
     0.0200   0.0200   0.0200   0.0200   0.0000   0.0000   0.0000   0.0000

          k =-0.5954-0.2564-0.4303     band energies (ev):

    -3.1522  -0.0273   3.8752   4.9299   9.1765   9.6139  11.1130  13.4636

     occupation numbers 
     0.0200   0.0200   0.0200   0.0200   0.0000   0.0000   0.0000   0.0000

          k =-0.2885 0.1948-0.1998     band energies (ev):

    -4.8521   2.9948   5.6335   5.8710   8.8590   9.7268  10.2830  12.6029

     occupation numbers 
     0.0200   0.0200   0.0200   0.0200   0.0000   0.0000   0.0000   0.0000

          k = 0.0942-0.4723-0.2871     band energies (ev):

    -4.1881   1.9950   3.9306   5.3242   9.1829  10.1347  11.2171  11.5281

     occupation numbers 
     0.0200   0.0200   0.0200   0.0200   0.0000   0.0000   0.0000   0.0000

          k = 0.3747 0.2715 0.0299     band energies (ev):

    -4.6134   2.9215   4.1735   5.8793   9.4788   9.8453  10.8194  11.6392

     occupation numbers 
     0.0200   0.0200   0.0200   0.0200   0.0000   0.0000   0.0000   0.0000

          k =-0.3116 0.3859 0.0413     band energies (ev):

    -4.4742   2.5867   3.9587   5.8535   9.6318   9.8475  10.7976  11.8523

     occupation numbers 
     0.0200   0.0200   0.0200   0.0200   0.0000   0.0000   0.0000   0.0000

          k =-0.0748-0.0463-0.0315     band energies (ev):

    -5.5157   6.2165   6.4798   6.5599   9.0587   9.1741   9.2101  10.3900

     occupation numbers 
     0.0200   0.0200   0.0200   0.0200   0.0000   0.0000   0.0000   0.0000

          k =-0.4843-0.3917-0.5525     band energies (ev):

    -3.0969  -0.5019   4.8615   5.2488   8.5420   9.7086  10.0576  14.2207

     occupation numbers 
     0.0200   0.0200   0.0200   0.0200   0.0000   0.0000   0.0000   0.0000

          k = 0.2422 0.4006 0.6973     band energies (ev):

    -2.8090  -0.1322   3.2553   4.4615   8.8367  10.2870  12.1109  12.6817

     occupation numbers 
     0.0200   0.0200   0.0200   0.0200   0.0000   0.0000   0.0000   0.0000

          k = 0.1113 0.3055 0.4927     band energies (ev):

    -4.0485   1.7005   3.8506   5.2318   9.2096  10.0848  11.3210  11.5950

     occupation numbers 
     0.0200   0.0200   0.0200   0.0200   0.0000   0.0000   0.0000   0.0000

          k =-0.5928-0.3918 0.0131     band energies (ev):

    -3.4141   1.0968   2.7447   4.7388   9.7204  10.0811  11.1722  12.7993

     occupation numbers 
     0.0200   0.0200   0.0200   0.0200   0.0000   0.0000   0.0000   0.0000

          k = 0.3065-0.1669-0.1782     band energies (ev):

    -4.8834   3.1928   5.5312   5.7935   8.9812   9.6660  10.4470  12.1694

     occupation numbers 
     0.0200   0.0200   0.0200   0.0200   0.0000   0.0000   0.0000   0.0000

          k =-0.3570-0.3781 0.1846     band energies (ev):

    -4.2419   1.6088   4.6247   5.7586   9.0075  10.0023  10.2661  13.1622

     occupation numbers 
     0.0200   0.0200   0.0200   0.0200   0.0000   0.0000   0.0000   0.0000

          k = 0.4164 0.3644 0.0507     band energies (ev):

    -4.2172   2.0840   3.6047   5.7123   9.4891  10.1903  10.9149  12.0886

     occupation numbers 
     0.0200   0.0200   0.0200   0.0200   0.0000   0.0000   0.0000   0.0000

          k = 0.2385-0.2897-0.4540     band energies (ev):

    -4.0727   1.2684   4.8689   5.2514   8.8641   9.8444  10.6868  12.4887

     occupation numbers 
     0.0200   0.0200   0.0200   0.0200   0.0000   0.0000   0.0000   0.0000

          k = 0.0791 0.4350 0.3544     band energies (ev):

    -4.1645   1.9147   3.7045   5.6284   9.5077   9.9991  11.0079  12.0248

     occupation numbers 
     0.0200   0.0200   0.0200   0.0200   0.0000   0.0000   0.0000   0.0000

          k =-0.3250 0.1840 0.0531     band energies (ev):

    -4.9285   3.6863   4.9225   5.9304   8.9652   9.9609  10.6155  11.5993

     occupation numbers 
     0.0200   0.0200   0.0200   0.0200   0.0000   0.0000   0.0000   0.0000

          k =-0.3336-0.4492-0.4610     band energies (ev):

    -3.4547  -0.0000   4.9277   5.4231   8.5085   9.8817   9.9509  14.1851

     occupation numbers 
     0.0200   0.0200   0.0200   0.0200   0.0000   0.0000   0.0000   0.0000

          k =-0.0679 0.0616 0.2608     band energies (ev):

    -5.2153   4.7773   5.6874   5.8654   8.6224  10.0135  10.3253  11.3791

     occupation numbers 
     0.0200   0.0200   0.0200   0.0200   0.0000   0.0000   0.0000   0.0000

          k =-0.2570-0.3072 0.2036     band energies (ev):

    -4.6754   2.4726   5.4521   5.8635   8.7621   9.8389  10.2587  12.9537

     occupation numbers 
     0.0200   0.0200   0.0200   0.0200   0.0000   0.0000   0.0000   0.0000

          k = 0.2936 0.4145 0.0035     band energies (ev):

    -4.4300   2.5869   3.8425   5.7043   9.5720   9.8669  11.1562  11.4449

     occupation numbers 
     0.0200   0.0200   0.0200   0.0200   0.0000   0.0000   0.0000   0.0000

          k =-0.1223 0.2887 0.1252     band energies (ev):

    -5.0533   3.9114   5.5846   5.8310   8.8994   9.7552  10.4539  11.7805

     occupation numbers 
     0.0200   0.0200   0.0200   0.0200   0.0000   0.0000   0.0000   0.0000

          k = 0.0813 0.0359-0.0903     band energies (ev):

    -5.4856   5.9378   6.3632   6.5511   9.1318   9.1819   9.2994  10.6069

     occupation numbers 
     0.0200   0.0200   0.0200   0.0200   0.0000   0.0000   0.0000   0.0000

          k =-0.0117 0.4649 0.0667     band energies (ev):

    -4.5727   3.3266   4.6506   4.8145   7.7660   9.8968  11.8763  12.0412

     occupation numbers 
     0.0200   0.0200   0.0200   0.0200   0.0000   0.0000   0.0000   0.0000

          k =-0.0397-0.5004-0.4161     band energies (ev):

    -3.7407   1.4097   2.9962   5.3151   9.2956  10.4981  11.6500  12.0253

     occupation numbers 
     0.0200   0.0200   0.0200   0.0200   0.0000   0.0000   0.0000   0.0000

          k = 0.4858 0.1803 0.4370     band energies (ev):

    -3.6283   0.7164   3.7961   5.3806   9.1093  10.1225  10.6869  13.3356

     occupation numbers 
     0.0200   0.0200   0.0200   0.0200   0.0000   0.0000   0.0000   0.0000

          k = 0.4357 0.5195 0.4636     band energies (ev):

    -3.1495  -0.5150   5.2098   5.3126   8.2714   9.7592   9.8874  14.0322

     occupation numbers 
     0.0200   0.0200   0.0200   0.0200   0.0000   0.0000   0.0000   0.0000

          k =-0.5031-0.2971-0.6762     band energies (ev):

    -2.8009  -0.4073   3.6213   4.7308   9.2383   9.5668  11.4042  14.4215

     occupation numbers 
     0.0200   0.0200   0.0200   0.0200   0.0000   0.0000   0.0000   0.0000

          k = 0.0760-0.1388 0.0573     band energies (ev):

    -5.4308   5.5740   6.2391   6.4337   9.0392   9.3279   9.5166  10.9137

     occupation numbers 
     0.0200   0.0200   0.0200   0.0200   0.0000   0.0000   0.0000   0.0000

          k =-0.0361-0.3820 0.2828     band energies (ev):

    -4.5614   2.7935   4.1011   5.8543   9.5384   9.8244  10.8479  11.6685

     occupation numbers 
     0.0200   0.0200   0.0200   0.0200   0.0000   0.0000   0.0000   0.0000

          k =-0.3606 0.1254 0.0176     band energies (ev):

    -4.9073   3.8891   4.9131   5.5529   8.4336  10.4881  11.0415  11.1135

     occupation numbers 
     0.0200   0.0200   0.0200   0.0200   0.0000   0.0000   0.0000   0.0000

          k = 0.0420 0.4293 0.4455     band energies (ev):

    -3.9080   1.6165   3.1612   5.5231   9.2526  10.7234  11.0959  12.4388

     occupation numbers 
     0.0200   0.0200   0.0200   0.0200   0.0000   0.0000   0.0000   0.0000

          k = 0.0539-0.0213 0.3756     band energies (ev):

    -4.9132   4.1088   5.0807   5.2073   8.0543  10.5636  11.2045  11.2618

     occupation numbers 
     0.0200   0.0200   0.0200   0.0200   0.0000   0.0000   0.0000   0.0000

          k = 0.2128 0.3464-0.2453     band energies (ev):

    -4.5734   2.2557   5.3673   5.6786   8.8310   9.7731  10.4284  12.6410

     occupation numbers 
     0.0200   0.0200   0.0200   0.0200   0.0000   0.0000   0.0000   0.0000

          k =-0.1203 0.0794 0.1949     band energies (ev):

    -5.2970   4.8184   5.9335   6.2992   9.0644   9.4254   9.8449  11.5455

     occupation numbers 
     0.0200   0.0200   0.0200   0.0200   0.0000   0.0000   0.0000   0.0000

          k =-0.2483-0.0233-0.2651     band energies (ev):

    -4.9746   3.7782   4.8064   6.2717   9.5812   9.6462   9.9873  12.1527

     occupation numbers 
     0.0200   0.0200   0.0200   0.0200   0.0000   0.0000   0.0000   0.0000

          k = 0.1700 0.0792-0.0229     band energies (ev):

    -5.3967   5.5034   6.0186   6.3656   8.9097   9.5416   9.6574  11.0220

     occupation numbers 
     0.0200   0.0200   0.0200   0.0200   0.0000   0.0000   0.0000   0.0000

          k =-0.1954 0.2300-0.2434     band energies (ev):

    -4.9003   3.0815   5.7557   5.9801   8.7456   9.8618  10.0666  12.9879

     occupation numbers 
     0.0200   0.0200   0.0200   0.0200   0.0000   0.0000   0.0000   0.0000

          k = 0.3584 0.4241-0.0818     band energies (ev):

    -4.1916   1.9391   3.7488   5.6751   9.4706  10.0597  10.8891  12.1461

     occupation numbers 
     0.0200   0.0200   0.0200   0.0200   0.0000   0.0000   0.0000   0.0000

          k = 0.2572 0.4951 0.1091     band energies (ev):

    -4.1493   1.9516   4.0352   5.0984   8.8543  10.4772  10.9386  11.6900

     occupation numbers 
     0.0200   0.0200   0.0200   0.0200   0.0000   0.0000   0.0000   0.0000

          k =-0.3141-0.5291-0.1848     band energies (ev):

    -3.7965   1.0801   4.0765   5.0088   8.9242  10.1431  11.3252  11.8520

     occupation numbers 
     0.0200   0.0200   0.0200   0.0200   0.0000   0.0000   0.0000   0.0000

          k = 0.0508-0.3814 0.2543     band energies (ev):

    -4.6228   2.9124   4.2978   5.8058   9.2931   9.9382  10.9006  11.5311

     occupation numbers 
     0.0200   0.0200   0.0200   0.0200   0.0000   0.0000   0.0000   0.0000

          k =-0.1695 0.4262 0.1305     band energies (ev):

    -4.5555   2.7244   4.8453   5.1491   8.6042  10.4672  11.0495  11.2828

     occupation numbers 
     0.0200   0.0200   0.0200   0.0200   0.0000   0.0000   0.0000   0.0000

          k =-0.1753 0.1476-0.4179     band energies (ev):

    -4.5577   2.6457   4.9534   5.1746   8.6900  10.3425  11.1520  11.2104

     occupation numbers 
     0.0200   0.0200   0.0200   0.0200   0.0000   0.0000   0.0000   0.0000

          k = 0.0717 0.2950 0.1792     band energies (ev):

    -5.0082   3.8255   5.1759   6.0421   9.0432   9.7711  10.4077  11.8179

     occupation numbers 
     0.0200   0.0200   0.0200   0.0200   0.0000   0.0000   0.0000   0.0000

          k = 0.1399-0.0381-0.1160     band energies (ev):

    -5.4049   5.4174   6.0640   6.5014   9.1609   9.3067   9.4969  11.0799

     occupation numbers 
     0.0200   0.0200   0.0200   0.0200   0.0000   0.0000   0.0000   0.0000

          k =-0.7226-0.4637-0.2227     band energies (ev):

    -2.6232  -0.2553   2.9985   4.3164   9.4162   9.7540  12.5156  13.1530

     occupation numbers 
     0.0200   0.0200   0.0200   0.0200   0.0000   0.0000   0.0000   0.0000

          k = 0.2487 0.0663-0.1323     band energies (ev):

    -5.1846   4.4553   5.5851   6.1322   8.9415   9.6799  10.1682  11.7023

     occupation numbers 
     0.0200   0.0200   0.0200   0.0200   0.0000   0.0000   0.0000   0.0000

          k = 0.1582-0.2912-0.2164     band energies (ev):

    -4.8693   3.1042   5.4620   5.9616   8.9623   9.6979  10.3077  12.4602

     occupation numbers 
     0.0200   0.0200   0.0200   0.0200   0.0000   0.0000   0.0000   0.0000

          k = 0.0075-0.3634-0.1473     band energies (ev):

    -4.8740   3.7586   4.7958   5.6229   8.5573  10.4127  11.0277  11.1424

     occupation numbers 
     0.0200   0.0200   0.0200   0.0200   0.0000   0.0000   0.0000   0.0000

          k =-0.3744-0.0728 0.2853     band energies (ev):

    -4.5626   2.6768   4.2800   5.8715   9.4629   9.8193  10.7167  11.8646

     occupation numbers 
     0.0200   0.0200   0.0200   0.0200   0.0000   0.0000   0.0000   0.0000

          k = 0.3639-0.1588 0.3192     band energies (ev):

    -4.4269   2.0535   4.6872   5.8384   9.1021   9.9121  10.3764  12.7186

     occupation numbers 
     0.0200   0.0200   0.0200   0.0200   0.0000   0.0000   0.0000   0.0000

          k = 0.1253 0.3691 0.3214     band energies (ev):

    -4.4445   2.2121   4.4383   5.8618   9.2824   9.9300  10.4604  12.4676

     occupation numbers 
     0.0200   0.0200   0.0200   0.0200   0.0000   0.0000   0.0000   0.0000

          k =-0.3748-0.0181-0.0783     band energies (ev):

    -4.9033   4.0209   5.0166   5.2945   8.1416  10.5760  11.1403  11.2323

     occupation numbers 
     0.0200   0.0200   0.0200   0.0200   0.0000   0.0000   0.0000   0.0000

          k =-0.4103 0.2527-0.1946     band energies (ev):

    -4.3818   1.9614   4.9621   5.4271   8.9372   9.8660  10.7461  12.0918

     occupation numbers 
     0.0200   0.0200   0.0200   0.0200   0.0000   0.0000   0.0000   0.0000

          k = 0.3805 0.5999 0.2421     band energies (ev):

    -3.2637   0.2029   3.8561   4.8229   8.9482   9.9492  11.3247  12.7576

     occupation numbers 
     0.0200   0.0200   0.0200   0.0200   0.0000   0.0000   0.0000   0.0000

          k =-0.4367-0.3469 0.0062     band energies (ev):

    -4.2070   2.1631   3.4907   5.6301   9.6220  10.0149  11.2410  11.6915

     occupation numbers 
     0.0200   0.0200   0.0200   0.0200   0.0000   0.0000   0.0000   0.0000

     highest occupied, lowest unoccupied level (ev):     6.6097    7.6949

     Writing output data file Si_RIM.save

     init_run     :      0.09s CPU      0.09s WALL (       1 calls)
     electrons    :     15.80s CPU     15.37s WALL (       1 calls)

     Called by init_run:
     wfcinit      :      0.00s CPU      0.00s WALL (       1 calls)
     potinit      :      0.00s CPU      0.00s WALL (       1 calls)

     Called by electrons:
     c_bands      :     15.79s CPU     15.37s WALL (       1 calls)
     v_of_rho     :      0.00s CPU      0.00s WALL (       1 calls)
     v_h          :      0.00s CPU      0.00s WALL (       1 calls)
     v_xc         :      0.00s CPU      0.00s WALL (       1 calls)

     Called by c_bands:
     init_us_2    :      0.04s CPU      0.04s WALL (     100 calls)
     cegterg      :     14.81s CPU     14.36s WALL (     161 calls)

     Called by sum_band:

     Called by *egterg:
     h_psi        :      9.84s CPU     10.16s WALL (    2537 calls)
     g_psi        :      0.07s CPU      0.10s WALL (    2276 calls)
     cdiaghg      :      1.78s CPU      1.91s WALL (    2376 calls)
     cegterg:over :      1.77s CPU      1.31s WALL (    2276 calls)
     cegterg:upda :      1.16s CPU      0.91s WALL (    2276 calls)
     cegterg:last :      0.64s CPU      0.47s WALL (     553 calls)

     Called by h_psi:
     h_psi:vloc   :      8.50s CPU      9.17s WALL (    2537 calls)
     h_psi:vnl    :      1.29s CPU      0.94s WALL (    2537 calls)
     add_vuspsi   :      0.51s CPU      0.45s WALL (    2537 calls)

     General routines
     calbec       :      0.75s CPU      0.47s WALL (    2537 calls)
     fft          :      0.00s CPU      0.00s WALL (       3 calls)
     fftw         :      7.66s CPU      8.42s WALL (   26156 calls)
     davcio       :      0.01s CPU      0.01s WALL (     200 calls)

     Parallel routines
     fft_scatter  :      0.32s CPU      0.37s WALL (   26159 calls)
     EXX routines

     PWSCF        :    16.26s CPU        15.91s WALL


   This run was terminated on:  14:33:46  22Oct2013            

=------------------------------------------------------------------------------=
   JOB DONE.
=------------------------------------------------------------------------------=
