Authorization required, but no authorization protocol specified
Authorization required, but no authorization protocol specified
Authorization required, but no authorization protocol specified

     Program PWSCF v.7.1 starts on  1Apr2024 at  0:46:51 

     This program is part of the open-source Quantum ESPRESSO suite
     for quantum simulation of materials; please cite
         "P. Giannozzi et al., J. Phys.:Condens. Matter 21 395502 (2009);
         "P. Giannozzi et al., J. Phys.:Condens. Matter 29 465901 (2017);
         "P. Giannozzi et al., J. Chem. Phys. 152 154105 (2020);
          URL http://www.quantum-espresso.org", 
     in publications or presentations arising from this work. More details at
     http://www.quantum-espresso.org/quote

     Parallel version (MPI), running on     1 processors

     MPI processes distributed on     1 nodes
     2797 MiB available memory on the printing compute node when the environment starts

     Waiting for input...
     Reading input from standard input

     Current dimensions of program PWSCF are:
     Max number of different atomic species (ntypx) = 10
     Max number of k-points (npk) =  40000
     Max angular momentum in pseudopotentials (lmaxx) =  4

     Atomic positions and unit cell read from directory:
     ./Si_shift3_bse_nscf.save/


     Subspace diagonalization in iterative solution of the eigenvalue problem:
     a serial algorithm will be used


     G-vector sticks info
     --------------------
     sticks:   dense  smooth     PW     G-vecs:    dense   smooth      PW
     Sum         211     211     85                 2085     2085     459

     Using Slab Decomposition



     bravais-lattice index     =            2
     lattice parameter (alat)  =      10.1830  a.u.
     unit-cell volume          =     263.9777 (a.u.)^3
     number of atoms/cell      =            2
     number of atomic types    =            1
     number of electrons       =         8.00
     number of Kohn-Sham states=           32
     kinetic-energy cutoff     =      15.0000  Ry
     charge density cutoff     =      60.0000  Ry
     Exchange-correlation=  SLA  PZ   NOGX NOGC
                           (   1   1   0   0   0   0   0)

     celldm(1)=  10.183000  celldm(2)=   0.000000  celldm(3)=   0.000000
     celldm(4)=   0.000000  celldm(5)=   0.000000  celldm(6)=   0.000000

     crystal axes: (cart. coord. in units of alat)
               a(1) = (  -0.500000   0.000000   0.500000 )  
               a(2) = (   0.000000   0.500000   0.500000 )  
               a(3) = (  -0.500000   0.500000   0.000000 )  

     reciprocal axes: (cart. coord. in units 2 pi/alat)
               b(1) = ( -1.000000 -1.000000  1.000000 )  
               b(2) = (  1.000000  1.000000  1.000000 )  
               b(3) = ( -1.000000  1.000000 -1.000000 )  


     PseudoPot. # 1 for Si read from file:
     ./Si.vbc.UPF
     MD5 check sum: 7974b67c806a44bbea7c2da40a3c413a
     Pseudo is Norm-conserving, Zval =  4.0
     Generated by new atomic code, or converted to UPF format
     Using radial grid of  431 points,  2 beta functions with: 
                l(1) =   0
                l(2) =   1

     atomic species   valence    mass     pseudopotential
        Si             4.00    28.08600     Si( 1.00)

     No symmetry found


                                    s                        frac. trans.

      isym =  1     identity                                     

 cryst.   s( 1) = (     1          0          0      )
                  (     0          1          0      )
                  (     0          0          1      )

 cart.    s( 1) = (  1.0000000  0.0000000  0.0000000 )
                  (  0.0000000  1.0000000  0.0000000 )
                  (  0.0000000  0.0000000  1.0000000 )


     point group C_1 (1)    
     there are  1 classes
     the character table:

       E    
A      1.00

     the symmetry operations in each class and the name of the first element:

     E        1
          identity                                               

   Cartesian axes

     site n.     atom                  positions (alat units)
         1           Si  tau(   1) = (   0.0000000   0.0000000   0.0000000  )
         2           Si  tau(   2) = (   0.2500000   0.2500000   0.2500000  )

   Crystallographic axes

     site n.     atom                  positions (cryst. coord.)
         1           Si  tau(   1) = (  0.0000000  0.0000000  0.0000000  )
         2           Si  tau(   2) = ( -0.2500000  0.7500000 -0.2500000  )

     number of k points=   256
                       cart. coord. in units 2pi/alat
        k(    1) = (  -0.1185170   0.1250000   0.1250000), wk =   0.0078125
        k(    2) = (  -0.3685170   0.3750000  -0.1250000), wk =   0.0078125
        k(    3) = (   0.3814830  -0.3750000   0.6250000), wk =   0.0078125
        k(    4) = (   0.1314830  -0.1250000   0.3750000), wk =   0.0078125
        k(    5) = (  -0.1185170   0.6250000   0.1250000), wk =   0.0078125
        k(    6) = (   0.6314830  -0.1250000   0.8750000), wk =   0.0078125
        k(    7) = (   0.3814830   0.1250000   0.6250000), wk =   0.0078125
        k(    8) = (  -0.1185170  -0.8750000   0.1250000), wk =   0.0078125
        k(    9) = (  -0.3685170   0.3750000   0.3750000), wk =   0.0078125
        k(   10) = (   0.3814830  -0.3750000   1.1250000), wk =   0.0078125
        k(   11) = (   0.3814830   0.3750000   0.1250000), wk =   0.0078125
        k(   12) = (  -0.3685170  -0.3750000   0.1250000), wk =   0.0078125
        k(   13) = (   0.3814830  -0.1250000  -0.3750000), wk =   0.0078125
        k(   14) = (  -0.3685170  -0.1250000   0.3750000), wk =   0.0078125
        k(   15) = (   0.3814830   0.1250000   0.3750000), wk =   0.0078125
        k(   16) = (  -0.3685170   0.1250000  -0.3750000), wk =   0.0078125
        k(   17) = (  -0.1185170  -0.3750000   0.3750000), wk =   0.0078125
        k(   18) = (  -0.1185170   0.3750000  -0.3750000), wk =   0.0078125
        k(   19) = (   0.1314830   0.3750000   0.3750000), wk =   0.0078125
        k(   20) = (   0.1314830  -0.3750000  -0.3750000), wk =   0.0078125
        k(   21) = (   0.3814830  -0.3750000   0.1250000), wk =   0.0078125
        k(   22) = (  -0.3685170   0.3750000   0.1250000), wk =   0.0078125
        k(   23) = (  -0.3685170  -0.3750000  -0.1250000), wk =   0.0078125
        k(   24) = (   0.3814830   0.3750000  -0.1250000), wk =   0.0078125
        k(   25) = (  -0.3685170   0.1250000   0.3750000), wk =   0.0078125
        k(   26) = (   0.3814830   0.1250000  -0.3750000), wk =   0.0078125
        k(   27) = (  -0.3685170  -0.1250000  -0.3750000), wk =   0.0078125
        k(   28) = (   0.3814830  -0.1250000   0.3750000), wk =   0.0078125
        k(   29) = (   0.1314830   0.3750000  -0.3750000), wk =   0.0078125
        k(   30) = (   0.1314830  -0.3750000   0.3750000), wk =   0.0078125
        k(   31) = (  -0.1185170  -0.3750000  -0.3750000), wk =   0.0078125
        k(   32) = (  -0.1185170   0.3750000   0.3750000), wk =   0.0078125
        k(   33) = (   0.1314830   0.1250000  -0.1250000), wk =   0.0078125
        k(   34) = (  -0.3685170   0.3750000   0.6250000), wk =   0.0078125
        k(   35) = (  -0.3685170  -0.3750000  -0.6250000), wk =   0.0078125
        k(   36) = (   0.3814830   0.3750000  -0.6250000), wk =   0.0078125
        k(   37) = (  -0.3685170   0.6250000   0.3750000), wk =   0.0078125
        k(   38) = (   0.3814830   0.6250000  -0.3750000), wk =   0.0078125
        k(   39) = (  -0.3685170  -0.6250000  -0.3750000), wk =   0.0078125
        k(   40) = (   0.3814830  -0.6250000   0.3750000), wk =   0.0078125
        k(   41) = (   0.6314830   0.3750000  -0.3750000), wk =   0.0078125
        k(   42) = (   0.6314830  -0.3750000   0.3750000), wk =   0.0078125
        k(   43) = (  -0.6185170  -0.3750000  -0.3750000), wk =   0.0078125
        k(   44) = (  -0.6185170   0.3750000   0.3750000), wk =   0.0078125
        k(   45) = (  -0.3685170   0.3750000  -0.6250000), wk =   0.0078125
        k(   46) = (   0.3814830  -0.3750000  -0.6250000), wk =   0.0078125
        k(   47) = (   0.3814830   0.3750000   0.6250000), wk =   0.0078125
        k(   48) = (  -0.3685170  -0.3750000   0.6250000), wk =   0.0078125
        k(   49) = (   0.3814830  -0.6250000  -0.3750000), wk =   0.0078125
        k(   50) = (  -0.3685170  -0.6250000   0.3750000), wk =   0.0078125
        k(   51) = (   0.3814830   0.6250000   0.3750000), wk =   0.0078125
        k(   52) = (  -0.3685170   0.6250000  -0.3750000), wk =   0.0078125
        k(   53) = (  -0.6185170  -0.3750000   0.3750000), wk =   0.0078125
        k(   54) = (  -0.6185170   0.3750000  -0.3750000), wk =   0.0078125
        k(   55) = (   0.6314830   0.3750000   0.3750000), wk =   0.0078125
        k(   56) = (   0.6314830  -0.3750000  -0.3750000), wk =   0.0078125
        k(   57) = (  -0.1185170  -0.1250000  -0.1250000), wk =   0.0078125
        k(   58) = (  -0.1185170   0.1250000   0.3750000), wk =   0.0078125
        k(   59) = (  -0.1185170  -0.1250000  -0.3750000), wk =   0.0078125
        k(   60) = (   0.1314830   0.1250000  -0.3750000), wk =   0.0078125
        k(   61) = (  -0.1185170   0.3750000   0.1250000), wk =   0.0078125
        k(   62) = (   0.1314830   0.3750000  -0.1250000), wk =   0.0078125
        k(   63) = (  -0.1185170  -0.3750000  -0.1250000), wk =   0.0078125
        k(   64) = (   0.1314830  -0.3750000   0.1250000), wk =   0.0078125
        k(   65) = (   0.3814830   0.1250000  -0.1250000), wk =   0.0078125
        k(   66) = (   0.3814830  -0.1250000   0.1250000), wk =   0.0078125
        k(   67) = (  -0.3685170  -0.1250000  -0.1250000), wk =   0.0078125
        k(   68) = (  -0.3685170   0.1250000   0.1250000), wk =   0.0078125
        k(   69) = (  -0.1185170   0.1250000  -0.3750000), wk =   0.0078125
        k(   70) = (   0.1314830  -0.1250000  -0.3750000), wk =   0.0078125
        k(   71) = (   0.1314830   0.1250000   0.3750000), wk =   0.0078125
        k(   72) = (  -0.1185170  -0.1250000   0.3750000), wk =   0.0078125
        k(   73) = (   0.1314830  -0.3750000  -0.1250000), wk =   0.0078125
        k(   74) = (  -0.1185170  -0.3750000   0.1250000), wk =   0.0078125
        k(   75) = (   0.1314830   0.3750000   0.1250000), wk =   0.0078125
        k(   76) = (  -0.1185170   0.3750000  -0.1250000), wk =   0.0078125
        k(   77) = (  -0.3685170  -0.1250000   0.1250000), wk =   0.0078125
        k(   78) = (  -0.3685170   0.1250000  -0.1250000), wk =   0.0078125
        k(   79) = (   0.3814830   0.1250000   0.1250000), wk =   0.0078125
        k(   80) = (   0.3814830  -0.1250000  -0.1250000), wk =   0.0078125
        k(   81) = (   0.1314830  -0.1250000  -0.1250000), wk =   0.0078125
        k(   82) = (   0.1314830  -0.6250000   0.1250000), wk =   0.0078125
        k(   83) = (   0.1314830   0.6250000  -0.1250000), wk =   0.0078125
        k(   84) = (  -0.1185170  -0.6250000  -0.1250000), wk =   0.0078125
        k(   85) = (   0.6314830   0.1250000  -0.1250000), wk =   0.0078125
        k(   86) = (  -0.6185170   0.1250000   0.1250000), wk =   0.0078125
        k(   87) = (   0.6314830  -0.1250000   0.1250000), wk =   0.0078125
        k(   88) = (  -0.6185170  -0.1250000  -0.1250000), wk =   0.0078125
        k(   89) = (   0.1314830  -0.1250000   0.6250000), wk =   0.0078125
        k(   90) = (   0.1314830   0.1250000  -0.6250000), wk =   0.0078125
        k(   91) = (  -0.1185170   0.1250000   0.6250000), wk =   0.0078125
        k(   92) = (  -0.1185170  -0.1250000  -0.6250000), wk =   0.0078125
        k(   93) = (   0.1314830  -0.6250000  -0.1250000), wk =   0.0078125
        k(   94) = (  -0.1185170   0.6250000  -0.1250000), wk =   0.0078125
        k(   95) = (  -0.1185170  -0.6250000   0.1250000), wk =   0.0078125
        k(   96) = (   0.1314830   0.6250000   0.1250000), wk =   0.0078125
        k(   97) = (  -0.6185170  -0.1250000   0.1250000), wk =   0.0078125
        k(   98) = (   0.6314830  -0.1250000  -0.1250000), wk =   0.0078125
        k(   99) = (  -0.6185170   0.1250000  -0.1250000), wk =   0.0078125
        k(  100) = (   0.6314830   0.1250000   0.1250000), wk =   0.0078125
        k(  101) = (  -0.1185170   0.1250000  -0.6250000), wk =   0.0078125
        k(  102) = (  -0.1185170  -0.1250000   0.6250000), wk =   0.0078125
        k(  103) = (   0.1314830  -0.1250000  -0.6250000), wk =   0.0078125
        k(  104) = (   0.1314830   0.1250000   0.6250000), wk =   0.0078125
        k(  105) = (  -0.1185170   0.1250000  -0.1250000), wk =   0.0078125
        k(  106) = (  -0.6185170   0.1250000   0.8750000), wk =   0.0078125
        k(  107) = (  -0.6185170  -0.1250000  -0.8750000), wk =   0.0078125
        k(  108) = (   0.6314830   0.1250000  -0.8750000), wk =   0.0078125
        k(  109) = (  -0.1185170   0.8750000   0.6250000), wk =   0.0078125
        k(  110) = (   0.1314830   0.8750000  -0.6250000), wk =   0.0078125
        k(  111) = (  -0.1185170  -0.8750000  -0.6250000), wk =   0.0078125
        k(  112) = (   0.1314830  -0.8750000   0.6250000), wk =   0.0078125
        k(  113) = (   0.8814830   0.6250000  -0.1250000), wk =   0.0078125
        k(  114) = (   0.8814830  -0.6250000   0.1250000), wk =   0.0078125
        k(  115) = (  -0.8685170  -0.6250000  -0.1250000), wk =   0.0078125
        k(  116) = (  -0.8685170   0.6250000   0.1250000), wk =   0.0078125
        k(  117) = (   0.1314830  -0.6250000   0.8750000), wk =   0.0078125
        k(  118) = (  -0.1185170   0.6250000   0.8750000), wk =   0.0078125
        k(  119) = (   0.1314830   0.6250000  -0.8750000), wk =   0.0078125
        k(  120) = (  -0.1185170  -0.6250000  -0.8750000), wk =   0.0078125
        k(  121) = (  -0.8685170  -0.1250000  -0.6250000), wk =   0.0078125
        k(  122) = (   0.8814830  -0.1250000   0.6250000), wk =   0.0078125
        k(  123) = (  -0.8685170   0.1250000   0.6250000), wk =   0.0078125
        k(  124) = (   0.8814830   0.1250000  -0.6250000), wk =   0.0078125
        k(  125) = (   0.6314830  -0.8750000   0.1250000), wk =   0.0078125
        k(  126) = (   0.6314830   0.8750000  -0.1250000), wk =   0.0078125
        k(  127) = (  -0.6185170  -0.8750000  -0.1250000), wk =   0.0078125
        k(  128) = (  -0.6185170   0.8750000   0.1250000), wk =   0.0078125
        k(  129) = (  -0.6185170   0.1250000  -0.8750000), wk =   0.0078125
        k(  130) = (   0.6314830  -0.1250000  -0.8750000), wk =   0.0078125
        k(  131) = (   0.6314830   0.1250000   0.8750000), wk =   0.0078125
        k(  132) = (  -0.6185170  -0.1250000   0.8750000), wk =   0.0078125
        k(  133) = (   0.1314830  -0.8750000  -0.6250000), wk =   0.0078125
        k(  134) = (  -0.1185170  -0.8750000   0.6250000), wk =   0.0078125
        k(  135) = (   0.1314830   0.8750000   0.6250000), wk =   0.0078125
        k(  136) = (  -0.1185170   0.8750000  -0.6250000), wk =   0.0078125
        k(  137) = (  -0.8685170  -0.6250000   0.1250000), wk =   0.0078125
        k(  138) = (  -0.8685170   0.6250000  -0.1250000), wk =   0.0078125
        k(  139) = (   0.8814830   0.6250000   0.1250000), wk =   0.0078125
        k(  140) = (   0.8814830  -0.6250000  -0.1250000), wk =   0.0078125
        k(  141) = (  -0.1185170   0.6250000  -0.8750000), wk =   0.0078125
        k(  142) = (   0.1314830  -0.6250000  -0.8750000), wk =   0.0078125
        k(  143) = (  -0.1185170  -0.6250000   0.8750000), wk =   0.0078125
        k(  144) = (   0.1314830   0.6250000   0.8750000), wk =   0.0078125
        k(  145) = (   0.8814830   0.1250000   0.6250000), wk =   0.0078125
        k(  146) = (  -0.8685170   0.1250000  -0.6250000), wk =   0.0078125
        k(  147) = (   0.8814830  -0.1250000  -0.6250000), wk =   0.0078125
        k(  148) = (  -0.8685170  -0.1250000   0.6250000), wk =   0.0078125
        k(  149) = (  -0.6185170   0.8750000  -0.1250000), wk =   0.0078125
        k(  150) = (  -0.6185170  -0.8750000   0.1250000), wk =   0.0078125
        k(  151) = (   0.6314830   0.8750000   0.1250000), wk =   0.0078125
        k(  152) = (   0.6314830  -0.8750000  -0.1250000), wk =   0.0078125
        k(  153) = (  -0.1185170  -0.1250000   0.1250000), wk =   0.0078125
        k(  154) = (  -0.3685170  -0.1250000   0.6250000), wk =   0.0078125
        k(  155) = (  -0.3685170   0.1250000  -0.6250000), wk =   0.0078125
        k(  156) = (   0.3814830  -0.1250000  -0.6250000), wk =   0.0078125
        k(  157) = (   0.1314830   0.6250000   0.3750000), wk =   0.0078125
        k(  158) = (  -0.1185170   0.6250000  -0.3750000), wk =   0.0078125
        k(  159) = (   0.1314830  -0.6250000  -0.3750000), wk =   0.0078125
        k(  160) = (  -0.1185170  -0.6250000   0.3750000), wk =   0.0078125
        k(  161) = (   0.6314830   0.3750000   0.1250000), wk =   0.0078125
        k(  162) = (   0.6314830  -0.3750000  -0.1250000), wk =   0.0078125
        k(  163) = (  -0.6185170  -0.3750000   0.1250000), wk =   0.0078125
        k(  164) = (  -0.6185170   0.3750000  -0.1250000), wk =   0.0078125
        k(  165) = (  -0.1185170  -0.3750000   0.6250000), wk =   0.0078125
        k(  166) = (   0.1314830   0.3750000   0.6250000), wk =   0.0078125
        k(  167) = (  -0.1185170   0.3750000  -0.6250000), wk =   0.0078125
        k(  168) = (   0.1314830  -0.3750000  -0.6250000), wk =   0.0078125
        k(  169) = (  -0.6185170   0.1250000  -0.3750000), wk =   0.0078125
        k(  170) = (   0.6314830   0.1250000   0.3750000), wk =   0.0078125
        k(  171) = (  -0.6185170  -0.1250000   0.3750000), wk =   0.0078125
        k(  172) = (   0.6314830  -0.1250000  -0.3750000), wk =   0.0078125
        k(  173) = (   0.3814830  -0.6250000  -0.1250000), wk =   0.0078125
        k(  174) = (   0.3814830   0.6250000   0.1250000), wk =   0.0078125
        k(  175) = (  -0.3685170  -0.6250000   0.1250000), wk =   0.0078125
        k(  176) = (  -0.3685170   0.6250000  -0.1250000), wk =   0.0078125
        k(  177) = (  -0.3685170  -0.1250000  -0.6250000), wk =   0.0078125
        k(  178) = (   0.3814830   0.1250000  -0.6250000), wk =   0.0078125
        k(  179) = (   0.3814830  -0.1250000   0.6250000), wk =   0.0078125
        k(  180) = (  -0.3685170   0.1250000   0.6250000), wk =   0.0078125
        k(  181) = (  -0.1185170  -0.6250000  -0.3750000), wk =   0.0078125
        k(  182) = (   0.1314830  -0.6250000   0.3750000), wk =   0.0078125
        k(  183) = (  -0.1185170   0.6250000   0.3750000), wk =   0.0078125
        k(  184) = (   0.1314830   0.6250000  -0.3750000), wk =   0.0078125
        k(  185) = (  -0.6185170  -0.3750000  -0.1250000), wk =   0.0078125
        k(  186) = (  -0.6185170   0.3750000   0.1250000), wk =   0.0078125
        k(  187) = (   0.6314830   0.3750000  -0.1250000), wk =   0.0078125
        k(  188) = (   0.6314830  -0.3750000   0.1250000), wk =   0.0078125
        k(  189) = (   0.1314830   0.3750000  -0.6250000), wk =   0.0078125
        k(  190) = (  -0.1185170  -0.3750000  -0.6250000), wk =   0.0078125
        k(  191) = (   0.1314830  -0.3750000   0.6250000), wk =   0.0078125
        k(  192) = (  -0.1185170   0.3750000   0.6250000), wk =   0.0078125
        k(  193) = (   0.6314830  -0.1250000   0.3750000), wk =   0.0078125
        k(  194) = (  -0.6185170  -0.1250000  -0.3750000), wk =   0.0078125
        k(  195) = (   0.6314830   0.1250000  -0.3750000), wk =   0.0078125
        k(  196) = (  -0.6185170   0.1250000   0.3750000), wk =   0.0078125
        k(  197) = (  -0.3685170   0.6250000   0.1250000), wk =   0.0078125
        k(  198) = (  -0.3685170  -0.6250000  -0.1250000), wk =   0.0078125
        k(  199) = (   0.3814830   0.6250000  -0.1250000), wk =   0.0078125
        k(  200) = (   0.3814830  -0.6250000   0.1250000), wk =   0.0078125
        k(  201) = (   0.1314830   0.1250000   0.1250000), wk =   0.0078125
        k(  202) = (   0.1314830   0.8750000   0.1250000), wk =   0.0078125
        k(  203) = (   0.1314830  -0.8750000  -0.1250000), wk =   0.0078125
        k(  204) = (  -0.1185170   0.8750000  -0.1250000), wk =   0.0078125
        k(  205) = (  -0.8685170   0.1250000  -0.1250000), wk =   0.0078125
        k(  206) = (   0.8814830   0.1250000   0.1250000), wk =   0.0078125
        k(  207) = (  -0.8685170  -0.1250000   0.1250000), wk =   0.0078125
        k(  208) = (   0.8814830  -0.1250000  -0.1250000), wk =   0.0078125
        k(  209) = (   0.1314830  -0.1250000  -0.8750000), wk =   0.0078125
        k(  210) = (   0.1314830   0.1250000   0.8750000), wk =   0.0078125
        k(  211) = (  -0.1185170   0.1250000  -0.8750000), wk =   0.0078125
        k(  212) = (  -0.1185170  -0.1250000   0.8750000), wk =   0.0078125
        k(  213) = (   0.1314830   0.8750000  -0.1250000), wk =   0.0078125
        k(  214) = (  -0.1185170  -0.8750000  -0.1250000), wk =   0.0078125
        k(  215) = (  -0.1185170   0.8750000   0.1250000), wk =   0.0078125
        k(  216) = (   0.1314830  -0.8750000   0.1250000), wk =   0.0078125
        k(  217) = (   0.8814830  -0.1250000   0.1250000), wk =   0.0078125
        k(  218) = (  -0.8685170  -0.1250000  -0.1250000), wk =   0.0078125
        k(  219) = (   0.8814830   0.1250000  -0.1250000), wk =   0.0078125
        k(  220) = (  -0.8685170   0.1250000   0.1250000), wk =   0.0078125
        k(  221) = (  -0.1185170   0.1250000   0.8750000), wk =   0.0078125
        k(  222) = (  -0.1185170  -0.1250000  -0.8750000), wk =   0.0078125
        k(  223) = (   0.1314830  -0.1250000   0.8750000), wk =   0.0078125
        k(  224) = (   0.1314830   0.1250000  -0.8750000), wk =   0.0078125
        k(  225) = (   0.1314830  -0.1250000   0.1250000), wk =   0.0078125
        k(  226) = (   0.3814830  -0.3750000   0.3750000), wk =   0.0078125
        k(  227) = (   0.3814830   0.3750000  -0.3750000), wk =   0.0078125
        k(  228) = (  -0.3685170  -0.3750000  -0.3750000), wk =   0.0078125
        k(  229) = (   0.3814830  -0.3750000  -0.3750000), wk =   0.0078125
        k(  230) = (  -0.3685170   0.3750000  -0.3750000), wk =   0.0078125
        k(  231) = (  -0.3685170  -0.3750000   0.3750000), wk =   0.0078125
        k(  232) = (   0.3814830   0.3750000   0.3750000), wk =   0.0078125
        k(  233) = (   0.3814830  -0.3750000  -0.1250000), wk =   0.0078125
        k(  234) = (  -0.3685170   0.3750000   1.1250000), wk =   0.0078125
        k(  235) = (  -0.3685170  -0.3750000  -1.1250000), wk =   0.0078125
        k(  236) = (   0.3814830   0.3750000  -1.1250000), wk =   0.0078125
        k(  237) = (  -0.3685170   1.1250000   0.3750000), wk =   0.0078125
        k(  238) = (   0.3814830   1.1250000  -0.3750000), wk =   0.0078125
        k(  239) = (  -0.3685170  -1.1250000  -0.3750000), wk =   0.0078125
        k(  240) = (   0.3814830  -1.1250000   0.3750000), wk =   0.0078125
        k(  241) = (   1.1314830   0.3750000  -0.3750000), wk =   0.0078125
        k(  242) = (   1.1314830  -0.3750000   0.3750000), wk =   0.0078125
        k(  243) = (  -1.1185170  -0.3750000  -0.3750000), wk =   0.0078125
        k(  244) = (  -1.1185170   0.3750000   0.3750000), wk =   0.0078125
        k(  245) = (  -0.3685170   0.3750000  -1.1250000), wk =   0.0078125
        k(  246) = (   0.3814830  -0.3750000  -1.1250000), wk =   0.0078125
        k(  247) = (   0.3814830   0.3750000   1.1250000), wk =   0.0078125
        k(  248) = (  -0.3685170  -0.3750000   1.1250000), wk =   0.0078125
        k(  249) = (   0.3814830  -1.1250000  -0.3750000), wk =   0.0078125
        k(  250) = (  -0.3685170  -1.1250000   0.3750000), wk =   0.0078125
        k(  251) = (   0.3814830   1.1250000   0.3750000), wk =   0.0078125
        k(  252) = (  -0.3685170   1.1250000  -0.3750000), wk =   0.0078125
        k(  253) = (  -1.1185170  -0.3750000   0.3750000), wk =   0.0078125
        k(  254) = (  -1.1185170   0.3750000  -0.3750000), wk =   0.0078125
        k(  255) = (   1.1314830   0.3750000   0.3750000), wk =   0.0078125
        k(  256) = (   1.1314830  -0.3750000  -0.3750000), wk =   0.0078125

                       cryst. coord.
        k(    1) = (   0.1217585   0.1250000   0.1217585), wk =   0.0078125
        k(    2) = (   0.1217585   0.1250000   0.3717585), wk =   0.0078125
        k(    3) = (   0.1217585   0.1250000  -0.3782415), wk =   0.0078125
        k(    4) = (   0.1217585   0.1250000  -0.1282415), wk =   0.0078125
        k(    5) = (   0.1217585   0.3750000   0.3717585), wk =   0.0078125
        k(    6) = (   0.1217585   0.3750000  -0.3782415), wk =   0.0078125
        k(    7) = (   0.1217585   0.3750000  -0.1282415), wk =   0.0078125
        k(    8) = (   0.1217585  -0.3750000  -0.3782415), wk =   0.0078125
        k(    9) = (   0.3717585   0.3750000   0.3717585), wk =   0.0078125
        k(   10) = (   0.3717585   0.3750000  -0.3782415), wk =   0.0078125
        k(   11) = (  -0.1282415   0.2500000  -0.0032415), wk =   0.0078125
        k(   12) = (   0.2467585  -0.1250000  -0.0032415), wk =   0.0078125
        k(   13) = (  -0.3782415  -0.2500000  -0.2532415), wk =   0.0078125
        k(   14) = (   0.3717585   0.1250000   0.1217585), wk =   0.0078125
        k(   15) = (  -0.0032415   0.2500000  -0.1282415), wk =   0.0078125
        k(   16) = (  -0.0032415  -0.1250000   0.2467585), wk =   0.0078125
        k(   17) = (   0.2467585   0.0000000  -0.1282415), wk =   0.0078125
        k(   18) = (  -0.1282415   0.0000000   0.2467585), wk =   0.0078125
        k(   19) = (   0.1217585   0.3750000   0.1217585), wk =   0.0078125
        k(   20) = (  -0.2532415  -0.3750000  -0.2532415), wk =   0.0078125
        k(   21) = (  -0.1282415  -0.1250000  -0.3782415), wk =   0.0078125
        k(   22) = (   0.2467585   0.2500000   0.3717585), wk =   0.0078125
        k(   23) = (   0.1217585  -0.2500000  -0.0032415), wk =   0.0078125
        k(   24) = (  -0.2532415   0.1250000  -0.0032415), wk =   0.0078125
        k(   25) = (   0.3717585   0.2500000   0.2467585), wk =   0.0078125
        k(   26) = (  -0.3782415  -0.1250000  -0.1282415), wk =   0.0078125
        k(   27) = (  -0.0032415  -0.2500000   0.1217585), wk =   0.0078125
        k(   28) = (  -0.0032415   0.1250000  -0.2532415), wk =   0.0078125
        k(   29) = (  -0.2532415   0.0000000   0.1217585), wk =   0.0078125
        k(   30) = (   0.1217585   0.0000000  -0.2532415), wk =   0.0078125
        k(   31) = (  -0.1282415  -0.3750000  -0.1282415), wk =   0.0078125
        k(   32) = (   0.2467585   0.3750000   0.2467585), wk =   0.0078125
        k(   33) = (  -0.1282415   0.0000000  -0.0032415), wk =   0.0078125
        k(   34) = (   0.4967585   0.5000000   0.3717585), wk =   0.0078125
        k(   35) = (  -0.1282415  -0.5000000  -0.0032415), wk =   0.0078125
        k(   36) = (  -0.5032415  -0.1250000  -0.0032415), wk =   0.0078125
        k(   37) = (   0.3717585   0.5000000   0.4967585), wk =   0.0078125
        k(   38) = (  -0.3782415   0.1250000   0.1217585), wk =   0.0078125
        k(   39) = (  -0.0032415  -0.5000000  -0.1282415), wk =   0.0078125
        k(   40) = (  -0.0032415  -0.1250000  -0.5032415), wk =   0.0078125
        k(   41) = (  -0.5032415   0.0000000  -0.1282415), wk =   0.0078125
        k(   42) = (  -0.1282415   0.0000000  -0.5032415), wk =   0.0078125
        k(   43) = (   0.1217585  -0.3750000   0.1217585), wk =   0.0078125
        k(   44) = (   0.4967585   0.3750000   0.4967585), wk =   0.0078125
        k(   45) = (  -0.1282415  -0.1250000   0.3717585), wk =   0.0078125
        k(   46) = (  -0.5032415  -0.5000000  -0.3782415), wk =   0.0078125
        k(   47) = (   0.1217585   0.5000000  -0.0032415), wk =   0.0078125
        k(   48) = (   0.4967585   0.1250000  -0.0032415), wk =   0.0078125
        k(   49) = (  -0.3782415  -0.5000000  -0.5032415), wk =   0.0078125
        k(   50) = (   0.3717585  -0.1250000  -0.1282415), wk =   0.0078125
        k(   51) = (  -0.0032415   0.5000000   0.1217585), wk =   0.0078125
        k(   52) = (  -0.0032415   0.1250000   0.4967585), wk =   0.0078125
        k(   53) = (   0.4967585   0.0000000   0.1217585), wk =   0.0078125
        k(   54) = (   0.1217585   0.0000000   0.4967585), wk =   0.0078125
        k(   55) = (  -0.1282415   0.3750000  -0.1282415), wk =   0.0078125
        k(   56) = (  -0.5032415  -0.3750000  -0.5032415), wk =   0.0078125
        k(   57) = (  -0.0032415  -0.1250000  -0.0032415), wk =   0.0078125
        k(   58) = (   0.2467585   0.2500000   0.1217585), wk =   0.0078125
        k(   59) = (  -0.1282415  -0.2500000  -0.0032415), wk =   0.0078125
        k(   60) = (  -0.2532415  -0.1250000  -0.0032415), wk =   0.0078125
        k(   61) = (   0.1217585   0.2500000   0.2467585), wk =   0.0078125
        k(   62) = (  -0.1282415   0.1250000   0.1217585), wk =   0.0078125
        k(   63) = (  -0.0032415  -0.2500000  -0.1282415), wk =   0.0078125
        k(   64) = (  -0.0032415  -0.1250000  -0.2532415), wk =   0.0078125
        k(   65) = (  -0.2532415   0.0000000  -0.1282415), wk =   0.0078125
        k(   66) = (  -0.1282415   0.0000000  -0.2532415), wk =   0.0078125
        k(   67) = (   0.1217585  -0.1250000   0.1217585), wk =   0.0078125
        k(   68) = (   0.2467585   0.1250000   0.2467585), wk =   0.0078125
        k(   69) = (  -0.1282415  -0.1250000   0.1217585), wk =   0.0078125
        k(   70) = (  -0.2532415  -0.2500000  -0.1282415), wk =   0.0078125
        k(   71) = (   0.1217585   0.2500000  -0.0032415), wk =   0.0078125
        k(   72) = (   0.2467585   0.1250000  -0.0032415), wk =   0.0078125
        k(   73) = (  -0.1282415  -0.2500000  -0.2532415), wk =   0.0078125
        k(   74) = (   0.1217585  -0.1250000  -0.1282415), wk =   0.0078125
        k(   75) = (  -0.0032415   0.2500000   0.1217585), wk =   0.0078125
        k(   76) = (  -0.0032415   0.1250000   0.2467585), wk =   0.0078125
        k(   77) = (   0.2467585   0.0000000   0.1217585), wk =   0.0078125
        k(   78) = (   0.1217585   0.0000000   0.2467585), wk =   0.0078125
        k(   79) = (  -0.1282415   0.1250000  -0.1282415), wk =   0.0078125
        k(   80) = (  -0.2532415  -0.1250000  -0.2532415), wk =   0.0078125
        k(   81) = (  -0.1282415  -0.1250000  -0.1282415), wk =   0.0078125
        k(   82) = (  -0.0032415  -0.2500000  -0.3782415), wk =   0.0078125
        k(   83) = (  -0.1282415   0.2500000   0.2467585), wk =   0.0078125
        k(   84) = (  -0.0032415  -0.3750000  -0.2532415), wk =   0.0078125
        k(   85) = (  -0.3782415   0.0000000  -0.2532415), wk =   0.0078125
        k(   86) = (   0.3717585   0.1250000   0.3717585), wk =   0.0078125
        k(   87) = (  -0.2532415   0.0000000  -0.3782415), wk =   0.0078125
        k(   88) = (   0.2467585  -0.1250000   0.2467585), wk =   0.0078125
        k(   89) = (   0.2467585   0.2500000  -0.1282415), wk =   0.0078125
        k(   90) = (  -0.3782415  -0.2500000  -0.0032415), wk =   0.0078125
        k(   91) = (   0.3717585   0.3750000   0.1217585), wk =   0.0078125
        k(   92) = (  -0.2532415  -0.3750000  -0.0032415), wk =   0.0078125
        k(   93) = (  -0.1282415  -0.3750000  -0.3782415), wk =   0.0078125
        k(   94) = (  -0.0032415   0.2500000   0.3717585), wk =   0.0078125
        k(   95) = (   0.1217585  -0.2500000  -0.2532415), wk =   0.0078125
        k(   96) = (  -0.0032415   0.3750000   0.2467585), wk =   0.0078125
        k(   97) = (   0.3717585   0.0000000   0.2467585), wk =   0.0078125
        k(   98) = (  -0.3782415  -0.1250000  -0.3782415), wk =   0.0078125
        k(   99) = (   0.2467585   0.0000000   0.3717585), wk =   0.0078125
        k(  100) = (  -0.2532415   0.1250000  -0.2532415), wk =   0.0078125
        k(  101) = (  -0.2532415  -0.2500000   0.1217585), wk =   0.0078125
        k(  102) = (   0.3717585   0.2500000  -0.0032415), wk =   0.0078125
        k(  103) = (  -0.3782415  -0.3750000  -0.1282415), wk =   0.0078125
        k(  104) = (   0.2467585   0.3750000  -0.0032415), wk =   0.0078125
        k(  105) = (  -0.0032415   0.0000000   0.1217585), wk =   0.0078125
        k(  106) = (   0.7467585   0.5000000   0.3717585), wk =   0.0078125
        k(  107) = (  -0.1282415  -0.5000000   0.2467585), wk =   0.0078125
        k(  108) = (  -0.7532415  -0.3750000  -0.2532415), wk =   0.0078125
        k(  109) = (   0.3717585   0.7500000   0.4967585), wk =   0.0078125
        k(  110) = (  -0.3782415   0.1250000   0.3717585), wk =   0.0078125
        k(  111) = (  -0.2532415  -0.7500000  -0.3782415), wk =   0.0078125
        k(  112) = (   0.2467585  -0.1250000  -0.5032415), wk =   0.0078125
        k(  113) = (  -0.5032415   0.2500000  -0.1282415), wk =   0.0078125
        k(  114) = (  -0.3782415  -0.2500000  -0.7532415), wk =   0.0078125
        k(  115) = (   0.3717585  -0.3750000   0.1217585), wk =   0.0078125
        k(  116) = (   0.4967585   0.3750000   0.7467585), wk =   0.0078125
        k(  117) = (   0.3717585   0.1250000  -0.3782415), wk =   0.0078125
        k(  118) = (   0.4967585   0.7500000   0.3717585), wk =   0.0078125
        k(  119) = (  -0.5032415  -0.1250000   0.2467585), wk =   0.0078125
        k(  120) = (  -0.3782415  -0.7500000  -0.2532415), wk =   0.0078125
        k(  121) = (   0.1217585  -0.3750000   0.3717585), wk =   0.0078125
        k(  122) = (  -0.1282415   0.2500000  -0.5032415), wk =   0.0078125
        k(  123) = (   0.7467585   0.3750000   0.4967585), wk =   0.0078125
        k(  124) = (  -0.7532415  -0.2500000  -0.3782415), wk =   0.0078125
        k(  125) = (  -0.2532415  -0.3750000  -0.7532415), wk =   0.0078125
        k(  126) = (  -0.3782415   0.3750000   0.1217585), wk =   0.0078125
        k(  127) = (   0.2467585  -0.5000000  -0.1282415), wk =   0.0078125
        k(  128) = (   0.3717585   0.5000000   0.7467585), wk =   0.0078125
        k(  129) = (  -0.1282415  -0.3750000   0.3717585), wk =   0.0078125
        k(  130) = (  -0.7532415  -0.5000000  -0.3782415), wk =   0.0078125
        k(  131) = (   0.1217585   0.5000000  -0.2532415), wk =   0.0078125
        k(  132) = (   0.7467585   0.3750000   0.2467585), wk =   0.0078125
        k(  133) = (  -0.3782415  -0.7500000  -0.5032415), wk =   0.0078125
        k(  134) = (   0.3717585  -0.1250000  -0.3782415), wk =   0.0078125
        k(  135) = (   0.2467585   0.7500000   0.3717585), wk =   0.0078125
        k(  136) = (  -0.2532415   0.1250000   0.4967585), wk =   0.0078125
        k(  137) = (   0.4967585  -0.2500000   0.1217585), wk =   0.0078125
        k(  138) = (   0.3717585   0.2500000   0.7467585), wk =   0.0078125
        k(  139) = (  -0.3782415   0.3750000  -0.1282415), wk =   0.0078125
        k(  140) = (  -0.5032415  -0.3750000  -0.7532415), wk =   0.0078125
        k(  141) = (  -0.3782415  -0.1250000   0.3717585), wk =   0.0078125
        k(  142) = (  -0.5032415  -0.7500000  -0.3782415), wk =   0.0078125
        k(  143) = (   0.4967585   0.1250000  -0.2532415), wk =   0.0078125
        k(  144) = (   0.3717585   0.7500000   0.2467585), wk =   0.0078125
        k(  145) = (  -0.1282415   0.3750000  -0.3782415), wk =   0.0078125
        k(  146) = (   0.1217585  -0.2500000   0.4967585), wk =   0.0078125
        k(  147) = (  -0.7532415  -0.3750000  -0.5032415), wk =   0.0078125
        k(  148) = (   0.7467585   0.2500000   0.3717585), wk =   0.0078125
        k(  149) = (   0.2467585   0.3750000   0.7467585), wk =   0.0078125
        k(  150) = (   0.3717585  -0.3750000  -0.1282415), wk =   0.0078125
        k(  151) = (  -0.2532415   0.5000000   0.1217585), wk =   0.0078125
        k(  152) = (  -0.3782415  -0.5000000  -0.7532415), wk =   0.0078125
        k(  153) = (   0.1217585   0.0000000  -0.0032415), wk =   0.0078125
        k(  154) = (   0.4967585   0.2500000   0.1217585), wk =   0.0078125
        k(  155) = (  -0.1282415  -0.2500000   0.2467585), wk =   0.0078125
        k(  156) = (  -0.5032415  -0.3750000  -0.2532415), wk =   0.0078125
        k(  157) = (   0.1217585   0.5000000   0.2467585), wk =   0.0078125
        k(  158) = (  -0.1282415   0.1250000   0.3717585), wk =   0.0078125
        k(  159) = (  -0.2532415  -0.5000000  -0.3782415), wk =   0.0078125
        k(  160) = (   0.2467585  -0.1250000  -0.2532415), wk =   0.0078125
        k(  161) = (  -0.2532415   0.2500000  -0.1282415), wk =   0.0078125
        k(  162) = (  -0.3782415  -0.2500000  -0.5032415), wk =   0.0078125
        k(  163) = (   0.3717585  -0.1250000   0.1217585), wk =   0.0078125
        k(  164) = (   0.2467585   0.1250000   0.4967585), wk =   0.0078125
        k(  165) = (   0.3717585   0.1250000  -0.1282415), wk =   0.0078125
        k(  166) = (   0.2467585   0.5000000   0.1217585), wk =   0.0078125
        k(  167) = (  -0.2532415  -0.1250000   0.2467585), wk =   0.0078125
        k(  168) = (  -0.3782415  -0.5000000  -0.2532415), wk =   0.0078125
        k(  169) = (   0.1217585  -0.1250000   0.3717585), wk =   0.0078125
        k(  170) = (  -0.1282415   0.2500000  -0.2532415), wk =   0.0078125
        k(  171) = (   0.4967585   0.1250000   0.2467585), wk =   0.0078125
        k(  172) = (  -0.5032415  -0.2500000  -0.3782415), wk =   0.0078125
        k(  173) = (  -0.2532415  -0.3750000  -0.5032415), wk =   0.0078125
        k(  174) = (  -0.1282415   0.3750000   0.1217585), wk =   0.0078125
        k(  175) = (   0.2467585  -0.2500000  -0.1282415), wk =   0.0078125
        k(  176) = (   0.1217585   0.2500000   0.4967585), wk =   0.0078125
        k(  177) = (  -0.1282415  -0.3750000   0.1217585), wk =   0.0078125
        k(  178) = (  -0.5032415  -0.2500000  -0.1282415), wk =   0.0078125
        k(  179) = (   0.1217585   0.2500000  -0.2532415), wk =   0.0078125
        k(  180) = (   0.4967585   0.3750000   0.2467585), wk =   0.0078125
        k(  181) = (  -0.1282415  -0.5000000  -0.2532415), wk =   0.0078125
        k(  182) = (   0.1217585  -0.1250000  -0.3782415), wk =   0.0078125
        k(  183) = (   0.2467585   0.5000000   0.3717585), wk =   0.0078125
        k(  184) = (  -0.2532415   0.1250000   0.2467585), wk =   0.0078125
        k(  185) = (   0.2467585  -0.2500000   0.1217585), wk =   0.0078125
        k(  186) = (   0.3717585   0.2500000   0.4967585), wk =   0.0078125
        k(  187) = (  -0.3782415   0.1250000  -0.1282415), wk =   0.0078125
        k(  188) = (  -0.2532415  -0.1250000  -0.5032415), wk =   0.0078125
        k(  189) = (  -0.3782415  -0.1250000   0.1217585), wk =   0.0078125
        k(  190) = (  -0.2532415  -0.5000000  -0.1282415), wk =   0.0078125
        k(  191) = (   0.2467585   0.1250000  -0.2532415), wk =   0.0078125
        k(  192) = (   0.3717585   0.5000000   0.2467585), wk =   0.0078125
        k(  193) = (  -0.1282415   0.1250000  -0.3782415), wk =   0.0078125
        k(  194) = (   0.1217585  -0.2500000   0.2467585), wk =   0.0078125
        k(  195) = (  -0.5032415  -0.1250000  -0.2532415), wk =   0.0078125
        k(  196) = (   0.4967585   0.2500000   0.3717585), wk =   0.0078125
        k(  197) = (   0.2467585   0.3750000   0.4967585), wk =   0.0078125
        k(  198) = (   0.1217585  -0.3750000  -0.1282415), wk =   0.0078125
        k(  199) = (  -0.2532415   0.2500000   0.1217585), wk =   0.0078125
        k(  200) = (  -0.1282415  -0.2500000  -0.5032415), wk =   0.0078125
        k(  201) = (  -0.0032415   0.1250000  -0.0032415), wk =   0.0078125
        k(  202) = (  -0.0032415   0.5000000   0.3717585), wk =   0.0078125
        k(  203) = (  -0.1282415  -0.5000000  -0.5032415), wk =   0.0078125
        k(  204) = (  -0.0032415   0.3750000   0.4967585), wk =   0.0078125
        k(  205) = (   0.3717585   0.0000000   0.4967585), wk =   0.0078125
        k(  206) = (  -0.3782415   0.1250000  -0.3782415), wk =   0.0078125
        k(  207) = (   0.4967585   0.0000000   0.3717585), wk =   0.0078125
        k(  208) = (  -0.5032415  -0.1250000  -0.5032415), wk =   0.0078125
        k(  209) = (  -0.5032415  -0.5000000  -0.1282415), wk =   0.0078125
        k(  210) = (   0.3717585   0.5000000  -0.0032415), wk =   0.0078125
        k(  211) = (  -0.3782415  -0.3750000   0.1217585), wk =   0.0078125
        k(  212) = (   0.4967585   0.3750000  -0.0032415), wk =   0.0078125
        k(  213) = (  -0.1282415   0.3750000   0.3717585), wk =   0.0078125
        k(  214) = (  -0.0032415  -0.5000000  -0.3782415), wk =   0.0078125
        k(  215) = (   0.1217585   0.5000000   0.4967585), wk =   0.0078125
        k(  216) = (  -0.0032415  -0.3750000  -0.5032415), wk =   0.0078125
        k(  217) = (  -0.3782415   0.0000000  -0.5032415), wk =   0.0078125
        k(  218) = (   0.3717585  -0.1250000   0.3717585), wk =   0.0078125
        k(  219) = (  -0.5032415   0.0000000  -0.3782415), wk =   0.0078125
        k(  220) = (   0.4967585   0.1250000   0.4967585), wk =   0.0078125
        k(  221) = (   0.4967585   0.5000000   0.1217585), wk =   0.0078125
        k(  222) = (  -0.3782415  -0.5000000  -0.0032415), wk =   0.0078125
        k(  223) = (   0.3717585   0.3750000  -0.1282415), wk =   0.0078125
        k(  224) = (  -0.5032415  -0.3750000  -0.0032415), wk =   0.0078125
        k(  225) = (  -0.0032415   0.0000000  -0.1282415), wk =   0.0078125
        k(  226) = (  -0.0032415   0.0000000  -0.3782415), wk =   0.0078125
        k(  227) = (  -0.3782415   0.0000000  -0.0032415), wk =   0.0078125
        k(  228) = (  -0.0032415  -0.3750000  -0.0032415), wk =   0.0078125
        k(  229) = (  -0.3782415  -0.3750000  -0.3782415), wk =   0.0078125
        k(  230) = (  -0.0032415   0.0000000   0.3717585), wk =   0.0078125
        k(  231) = (   0.3717585   0.0000000  -0.0032415), wk =   0.0078125
        k(  232) = (  -0.0032415   0.3750000  -0.0032415), wk =   0.0078125
        k(  233) = (  -0.2532415  -0.2500000  -0.3782415), wk =   0.0078125
        k(  234) = (   0.7467585   0.7500000   0.3717585), wk =   0.0078125
        k(  235) = (  -0.3782415  -0.7500000  -0.0032415), wk =   0.0078125
        k(  236) = (  -0.7532415  -0.3750000  -0.0032415), wk =   0.0078125
        k(  237) = (   0.3717585   0.7500000   0.7467585), wk =   0.0078125
        k(  238) = (  -0.3782415   0.3750000   0.3717585), wk =   0.0078125
        k(  239) = (  -0.0032415  -0.7500000  -0.3782415), wk =   0.0078125
        k(  240) = (  -0.0032415  -0.3750000  -0.7532415), wk =   0.0078125
        k(  241) = (  -0.7532415   0.0000000  -0.3782415), wk =   0.0078125
        k(  242) = (  -0.3782415   0.0000000  -0.7532415), wk =   0.0078125
        k(  243) = (   0.3717585  -0.3750000   0.3717585), wk =   0.0078125
        k(  244) = (   0.7467585   0.3750000   0.7467585), wk =   0.0078125
        k(  245) = (  -0.3782415  -0.3750000   0.3717585), wk =   0.0078125
        k(  246) = (  -0.7532415  -0.7500000  -0.3782415), wk =   0.0078125
        k(  247) = (   0.3717585   0.7500000  -0.0032415), wk =   0.0078125
        k(  248) = (   0.7467585   0.3750000  -0.0032415), wk =   0.0078125
        k(  249) = (  -0.3782415  -0.7500000  -0.7532415), wk =   0.0078125
        k(  250) = (   0.3717585  -0.3750000  -0.3782415), wk =   0.0078125
        k(  251) = (  -0.0032415   0.7500000   0.3717585), wk =   0.0078125
        k(  252) = (  -0.0032415   0.3750000   0.7467585), wk =   0.0078125
        k(  253) = (   0.7467585   0.0000000   0.3717585), wk =   0.0078125
        k(  254) = (   0.3717585   0.0000000   0.7467585), wk =   0.0078125
        k(  255) = (  -0.3782415   0.3750000  -0.3782415), wk =   0.0078125
        k(  256) = (  -0.7532415  -0.3750000  -0.7532415), wk =   0.0078125

     Dense  grid:     2085 G-vectors     FFT dimensions: (  18,  18,  18)

     Dynamical RAM for                 wfc:       0.13 MB

     Dynamical RAM for     wfc (w. buffer):       0.13 MB

     Dynamical RAM for           str. fact:       0.03 MB

     Dynamical RAM for           local pot:       0.00 MB

     Dynamical RAM for          nlocal pot:       0.03 MB

     Dynamical RAM for                qrad:       0.05 MB

     Dynamical RAM for          rho,v,vnew:       0.23 MB

     Dynamical RAM for           G-vectors:       0.14 MB

     Dynamical RAM for          h,s,v(r/c):       0.19 MB

     Dynamical RAM for          <psi|beta>:       0.00 MB

     Dynamical RAM for                 psi:       0.25 MB

     Dynamical RAM for                hpsi:       0.25 MB

     Dynamical RAM for      wfcinit/wfcrot:       0.28 MB

     Estimated static dynamical RAM per process >       0.89 MB

     Estimated max dynamical RAM per process >       1.59 MB

     The potential is recalculated from file :
     ./Si_shift3_bse_nscf.save/charge-density

     Starting wfcs are    8 randomized atomic wfcs +   24 random wfcs

     Band Structure Calculation
     Davidson diagonalization with overlap

     Computing kpt #:     1  of   256
     total cpu time spent up to now is        0.2 secs

     Computing kpt #:     2  of   256
     total cpu time spent up to now is        0.3 secs

     Computing kpt #:     3  of   256
     total cpu time spent up to now is        0.4 secs

     Computing kpt #:     4  of   256
     total cpu time spent up to now is        0.5 secs

     Computing kpt #:     5  of   256
     total cpu time spent up to now is        0.6 secs

     Computing kpt #:     6  of   256
     total cpu time spent up to now is        0.7 secs

     Computing kpt #:     7  of   256
     total cpu time spent up to now is        0.8 secs

     Computing kpt #:     8  of   256
     total cpu time spent up to now is        0.9 secs

     Computing kpt #:     9  of   256
     total cpu time spent up to now is        1.0 secs

     Computing kpt #:    10  of   256
     total cpu time spent up to now is        1.1 secs

     Computing kpt #:    11  of   256
     total cpu time spent up to now is        1.2 secs

     Computing kpt #:    12  of   256
     total cpu time spent up to now is        1.3 secs

     Computing kpt #:    13  of   256
     total cpu time spent up to now is        1.5 secs

     Computing kpt #:    14  of   256
     total cpu time spent up to now is        1.6 secs

     Computing kpt #:    15  of   256
     total cpu time spent up to now is        1.7 secs

     Computing kpt #:    16  of   256
     total cpu time spent up to now is        1.8 secs

     Computing kpt #:    17  of   256
     total cpu time spent up to now is        2.0 secs

     Computing kpt #:    18  of   256
     total cpu time spent up to now is        2.1 secs

     Computing kpt #:    19  of   256
     total cpu time spent up to now is        2.2 secs

     Computing kpt #:    20  of   256
     total cpu time spent up to now is        2.3 secs

     Computing kpt #:    21  of   256
     total cpu time spent up to now is        2.4 secs

     Computing kpt #:    22  of   256
     total cpu time spent up to now is        2.6 secs

     Computing kpt #:    23  of   256
     total cpu time spent up to now is        2.7 secs

     Computing kpt #:    24  of   256
     total cpu time spent up to now is        2.8 secs

     Computing kpt #:    25  of   256
     total cpu time spent up to now is        2.9 secs

     Computing kpt #:    26  of   256
     total cpu time spent up to now is        3.0 secs

     Computing kpt #:    27  of   256
     total cpu time spent up to now is        3.1 secs

     Computing kpt #:    28  of   256
     total cpu time spent up to now is        3.3 secs

     Computing kpt #:    29  of   256
     total cpu time spent up to now is        3.4 secs

     Computing kpt #:    30  of   256
     total cpu time spent up to now is        3.6 secs

     Computing kpt #:    31  of   256
     total cpu time spent up to now is        3.7 secs

     Computing kpt #:    32  of   256
     total cpu time spent up to now is        3.9 secs

     Computing kpt #:    33  of   256
     total cpu time spent up to now is        4.0 secs

     Computing kpt #:    34  of   256
     total cpu time spent up to now is        4.1 secs

     Computing kpt #:    35  of   256
     total cpu time spent up to now is        4.2 secs

     Computing kpt #:    36  of   256
     total cpu time spent up to now is        4.3 secs

     Computing kpt #:    37  of   256
     total cpu time spent up to now is        4.4 secs

     Computing kpt #:    38  of   256
     total cpu time spent up to now is        4.5 secs

     Computing kpt #:    39  of   256
     total cpu time spent up to now is        4.6 secs

     Computing kpt #:    40  of   256
     total cpu time spent up to now is        4.7 secs

     Computing kpt #:    41  of   256
     total cpu time spent up to now is        4.9 secs

     Computing kpt #:    42  of   256
     total cpu time spent up to now is        5.0 secs

     Computing kpt #:    43  of   256
     total cpu time spent up to now is        5.1 secs

     Computing kpt #:    44  of   256
     total cpu time spent up to now is        5.2 secs

     Computing kpt #:    45  of   256
     total cpu time spent up to now is        5.3 secs

     Computing kpt #:    46  of   256
     total cpu time spent up to now is        5.4 secs

     Computing kpt #:    47  of   256
     total cpu time spent up to now is        5.5 secs

     Computing kpt #:    48  of   256
     total cpu time spent up to now is        5.6 secs

     Computing kpt #:    49  of   256
     total cpu time spent up to now is        5.7 secs

     Computing kpt #:    50  of   256
     total cpu time spent up to now is        5.8 secs

     Computing kpt #:    51  of   256
     total cpu time spent up to now is        5.9 secs

     Computing kpt #:    52  of   256
     total cpu time spent up to now is        6.0 secs

     Computing kpt #:    53  of   256
     total cpu time spent up to now is        6.1 secs

     Computing kpt #:    54  of   256
     total cpu time spent up to now is        6.2 secs

     Computing kpt #:    55  of   256
     total cpu time spent up to now is        6.3 secs

     Computing kpt #:    56  of   256
     total cpu time spent up to now is        6.4 secs

     Computing kpt #:    57  of   256
     total cpu time spent up to now is        6.5 secs

     Computing kpt #:    58  of   256
     total cpu time spent up to now is        6.6 secs

     Computing kpt #:    59  of   256
     total cpu time spent up to now is        6.7 secs

     Computing kpt #:    60  of   256
     total cpu time spent up to now is        6.8 secs

     Computing kpt #:    61  of   256
     total cpu time spent up to now is        6.9 secs

     Computing kpt #:    62  of   256
     total cpu time spent up to now is        7.0 secs

     Computing kpt #:    63  of   256
     total cpu time spent up to now is        7.1 secs

     Computing kpt #:    64  of   256
     total cpu time spent up to now is        7.2 secs

     Computing kpt #:    65  of   256
     total cpu time spent up to now is        7.3 secs

     Computing kpt #:    66  of   256
     total cpu time spent up to now is        7.4 secs

     Computing kpt #:    67  of   256
     total cpu time spent up to now is        7.6 secs

     Computing kpt #:    68  of   256
     total cpu time spent up to now is        7.7 secs

     Computing kpt #:    69  of   256
     total cpu time spent up to now is        7.8 secs

     Computing kpt #:    70  of   256
     total cpu time spent up to now is        7.9 secs

     Computing kpt #:    71  of   256
     total cpu time spent up to now is        8.0 secs

     Computing kpt #:    72  of   256
     total cpu time spent up to now is        8.1 secs

     Computing kpt #:    73  of   256
     total cpu time spent up to now is        8.2 secs

     Computing kpt #:    74  of   256
     total cpu time spent up to now is        8.3 secs

     Computing kpt #:    75  of   256
     total cpu time spent up to now is        8.4 secs

     Computing kpt #:    76  of   256
     total cpu time spent up to now is        8.5 secs

     Computing kpt #:    77  of   256
     total cpu time spent up to now is        8.6 secs

     Computing kpt #:    78  of   256
     total cpu time spent up to now is        8.8 secs

     Computing kpt #:    79  of   256
     total cpu time spent up to now is        8.9 secs

     Computing kpt #:    80  of   256
     total cpu time spent up to now is        9.0 secs

     Computing kpt #:    81  of   256
     total cpu time spent up to now is        9.1 secs

     Computing kpt #:    82  of   256
     total cpu time spent up to now is        9.2 secs

     Computing kpt #:    83  of   256
     total cpu time spent up to now is        9.3 secs

     Computing kpt #:    84  of   256
     total cpu time spent up to now is        9.4 secs

     Computing kpt #:    85  of   256
     total cpu time spent up to now is        9.5 secs

     Computing kpt #:    86  of   256
     total cpu time spent up to now is        9.6 secs

     Computing kpt #:    87  of   256
     total cpu time spent up to now is        9.7 secs

     Computing kpt #:    88  of   256
     total cpu time spent up to now is        9.8 secs

     Computing kpt #:    89  of   256
     total cpu time spent up to now is       10.0 secs

     Computing kpt #:    90  of   256
     total cpu time spent up to now is       10.1 secs

     Computing kpt #:    91  of   256
     total cpu time spent up to now is       10.2 secs

     Computing kpt #:    92  of   256
     total cpu time spent up to now is       10.3 secs

     Computing kpt #:    93  of   256
     total cpu time spent up to now is       10.4 secs

     Computing kpt #:    94  of   256
     total cpu time spent up to now is       10.5 secs

     Computing kpt #:    95  of   256
     total cpu time spent up to now is       10.6 secs

     Computing kpt #:    96  of   256
     total cpu time spent up to now is       10.7 secs

     Computing kpt #:    97  of   256
     total cpu time spent up to now is       10.8 secs

     Computing kpt #:    98  of   256
     total cpu time spent up to now is       11.0 secs

     Computing kpt #:    99  of   256
     total cpu time spent up to now is       11.1 secs

     Computing kpt #:   100  of   256
     total cpu time spent up to now is       11.2 secs

     Computing kpt #:   101  of   256
     total cpu time spent up to now is       11.3 secs

     Computing kpt #:   102  of   256
     total cpu time spent up to now is       11.4 secs

     Computing kpt #:   103  of   256
     total cpu time spent up to now is       11.5 secs

     Computing kpt #:   104  of   256
     total cpu time spent up to now is       11.6 secs

     Computing kpt #:   105  of   256
     total cpu time spent up to now is       11.7 secs

     Computing kpt #:   106  of   256
     total cpu time spent up to now is       11.8 secs

     Computing kpt #:   107  of   256
     total cpu time spent up to now is       11.9 secs

     Computing kpt #:   108  of   256
     total cpu time spent up to now is       12.0 secs

     Computing kpt #:   109  of   256
     total cpu time spent up to now is       12.1 secs

     Computing kpt #:   110  of   256
     total cpu time spent up to now is       12.2 secs

     Computing kpt #:   111  of   256
     total cpu time spent up to now is       12.3 secs

     Computing kpt #:   112  of   256
     total cpu time spent up to now is       12.4 secs

     Computing kpt #:   113  of   256
     total cpu time spent up to now is       12.5 secs

     Computing kpt #:   114  of   256
     total cpu time spent up to now is       12.6 secs

     Computing kpt #:   115  of   256
     total cpu time spent up to now is       12.7 secs

     Computing kpt #:   116  of   256
     total cpu time spent up to now is       12.8 secs

     Computing kpt #:   117  of   256
     total cpu time spent up to now is       12.9 secs

     Computing kpt #:   118  of   256
     total cpu time spent up to now is       13.0 secs

     Computing kpt #:   119  of   256
     total cpu time spent up to now is       13.1 secs

     Computing kpt #:   120  of   256
     total cpu time spent up to now is       13.2 secs

     Computing kpt #:   121  of   256
     total cpu time spent up to now is       13.3 secs

     Computing kpt #:   122  of   256
     total cpu time spent up to now is       13.4 secs

     Computing kpt #:   123  of   256
     total cpu time spent up to now is       13.5 secs

     Computing kpt #:   124  of   256
     total cpu time spent up to now is       13.6 secs

     Computing kpt #:   125  of   256
     total cpu time spent up to now is       13.7 secs

     Computing kpt #:   126  of   256
     total cpu time spent up to now is       13.8 secs

     Computing kpt #:   127  of   256
     total cpu time spent up to now is       13.9 secs

     Computing kpt #:   128  of   256
     total cpu time spent up to now is       14.0 secs

     Computing kpt #:   129  of   256
     total cpu time spent up to now is       14.1 secs

     Computing kpt #:   130  of   256
     total cpu time spent up to now is       14.2 secs

     Computing kpt #:   131  of   256
     total cpu time spent up to now is       14.3 secs

     Computing kpt #:   132  of   256
     total cpu time spent up to now is       14.4 secs

     Computing kpt #:   133  of   256
     total cpu time spent up to now is       14.5 secs

     Computing kpt #:   134  of   256
     total cpu time spent up to now is       14.6 secs

     Computing kpt #:   135  of   256
     total cpu time spent up to now is       14.7 secs

     Computing kpt #:   136  of   256
     total cpu time spent up to now is       14.8 secs

     Computing kpt #:   137  of   256
     total cpu time spent up to now is       14.9 secs

     Computing kpt #:   138  of   256
     total cpu time spent up to now is       15.0 secs

     Computing kpt #:   139  of   256
     total cpu time spent up to now is       15.1 secs

     Computing kpt #:   140  of   256
     total cpu time spent up to now is       15.2 secs

     Computing kpt #:   141  of   256
     total cpu time spent up to now is       15.3 secs

     Computing kpt #:   142  of   256
     total cpu time spent up to now is       15.4 secs

     Computing kpt #:   143  of   256
     total cpu time spent up to now is       15.5 secs

     Computing kpt #:   144  of   256
     total cpu time spent up to now is       15.6 secs

     Computing kpt #:   145  of   256
     total cpu time spent up to now is       15.7 secs

     Computing kpt #:   146  of   256
     total cpu time spent up to now is       15.8 secs

     Computing kpt #:   147  of   256
     total cpu time spent up to now is       15.9 secs

     Computing kpt #:   148  of   256
     total cpu time spent up to now is       16.0 secs

     Computing kpt #:   149  of   256
     total cpu time spent up to now is       16.1 secs

     Computing kpt #:   150  of   256
     total cpu time spent up to now is       16.3 secs

     Computing kpt #:   151  of   256
     total cpu time spent up to now is       16.4 secs

     Computing kpt #:   152  of   256
     total cpu time spent up to now is       16.5 secs

     Computing kpt #:   153  of   256
     total cpu time spent up to now is       16.6 secs

     Computing kpt #:   154  of   256
     total cpu time spent up to now is       16.7 secs

     Computing kpt #:   155  of   256
     total cpu time spent up to now is       16.8 secs

     Computing kpt #:   156  of   256
     total cpu time spent up to now is       16.9 secs

     Computing kpt #:   157  of   256
     total cpu time spent up to now is       17.0 secs

     Computing kpt #:   158  of   256
     total cpu time spent up to now is       17.1 secs

     Computing kpt #:   159  of   256
     total cpu time spent up to now is       17.2 secs

     Computing kpt #:   160  of   256
     total cpu time spent up to now is       17.3 secs

     Computing kpt #:   161  of   256
     total cpu time spent up to now is       17.4 secs

     Computing kpt #:   162  of   256
     total cpu time spent up to now is       17.5 secs

     Computing kpt #:   163  of   256
     total cpu time spent up to now is       17.6 secs

     Computing kpt #:   164  of   256
     total cpu time spent up to now is       17.8 secs

     Computing kpt #:   165  of   256
     total cpu time spent up to now is       17.9 secs

     Computing kpt #:   166  of   256
     total cpu time spent up to now is       18.0 secs

     Computing kpt #:   167  of   256
     total cpu time spent up to now is       18.2 secs

     Computing kpt #:   168  of   256
     total cpu time spent up to now is       18.3 secs

     Computing kpt #:   169  of   256
     total cpu time spent up to now is       18.4 secs

     Computing kpt #:   170  of   256
     total cpu time spent up to now is       18.5 secs

     Computing kpt #:   171  of   256
     total cpu time spent up to now is       18.7 secs

     Computing kpt #:   172  of   256
     total cpu time spent up to now is       18.8 secs

     Computing kpt #:   173  of   256
     total cpu time spent up to now is       18.9 secs

     Computing kpt #:   174  of   256
     total cpu time spent up to now is       19.0 secs

     Computing kpt #:   175  of   256
     total cpu time spent up to now is       19.1 secs

     Computing kpt #:   176  of   256
     total cpu time spent up to now is       19.2 secs

     Computing kpt #:   177  of   256
     total cpu time spent up to now is       19.3 secs

     Computing kpt #:   178  of   256
     total cpu time spent up to now is       19.4 secs

     Computing kpt #:   179  of   256
     total cpu time spent up to now is       19.5 secs

     Computing kpt #:   180  of   256
     total cpu time spent up to now is       19.6 secs

     Computing kpt #:   181  of   256
     total cpu time spent up to now is       19.7 secs

     Computing kpt #:   182  of   256
     total cpu time spent up to now is       19.9 secs

     Computing kpt #:   183  of   256
     total cpu time spent up to now is       20.0 secs

     Computing kpt #:   184  of   256
     total cpu time spent up to now is       20.1 secs

     Computing kpt #:   185  of   256
     total cpu time spent up to now is       20.2 secs

     Computing kpt #:   186  of   256
     total cpu time spent up to now is       20.3 secs

     Computing kpt #:   187  of   256
     total cpu time spent up to now is       20.4 secs

     Computing kpt #:   188  of   256
     total cpu time spent up to now is       20.5 secs

     Computing kpt #:   189  of   256
     total cpu time spent up to now is       20.6 secs

     Computing kpt #:   190  of   256
     total cpu time spent up to now is       20.7 secs

     Computing kpt #:   191  of   256
     total cpu time spent up to now is       20.8 secs

     Computing kpt #:   192  of   256
     total cpu time spent up to now is       20.9 secs

     Computing kpt #:   193  of   256
     total cpu time spent up to now is       21.0 secs

     Computing kpt #:   194  of   256
     total cpu time spent up to now is       21.1 secs

     Computing kpt #:   195  of   256
     total cpu time spent up to now is       21.2 secs

     Computing kpt #:   196  of   256
     total cpu time spent up to now is       21.3 secs

     Computing kpt #:   197  of   256
     total cpu time spent up to now is       21.4 secs

     Computing kpt #:   198  of   256
     total cpu time spent up to now is       21.6 secs

     Computing kpt #:   199  of   256
     total cpu time spent up to now is       21.7 secs

     Computing kpt #:   200  of   256
     total cpu time spent up to now is       21.8 secs

     Computing kpt #:   201  of   256
     total cpu time spent up to now is       21.9 secs

     Computing kpt #:   202  of   256
     total cpu time spent up to now is       22.0 secs

     Computing kpt #:   203  of   256
     total cpu time spent up to now is       22.1 secs

     Computing kpt #:   204  of   256
     total cpu time spent up to now is       22.2 secs

     Computing kpt #:   205  of   256
     total cpu time spent up to now is       22.3 secs

     Computing kpt #:   206  of   256
     total cpu time spent up to now is       22.4 secs

     Computing kpt #:   207  of   256
     total cpu time spent up to now is       22.5 secs

     Computing kpt #:   208  of   256
     total cpu time spent up to now is       22.6 secs

     Computing kpt #:   209  of   256
     total cpu time spent up to now is       22.7 secs

     Computing kpt #:   210  of   256
     total cpu time spent up to now is       22.8 secs

     Computing kpt #:   211  of   256
     total cpu time spent up to now is       23.0 secs

     Computing kpt #:   212  of   256
     total cpu time spent up to now is       23.1 secs

     Computing kpt #:   213  of   256
     total cpu time spent up to now is       23.2 secs

     Computing kpt #:   214  of   256
     total cpu time spent up to now is       23.3 secs

     Computing kpt #:   215  of   256
     total cpu time spent up to now is       23.4 secs

     Computing kpt #:   216  of   256
     total cpu time spent up to now is       23.5 secs

     Computing kpt #:   217  of   256
     total cpu time spent up to now is       23.6 secs

     Computing kpt #:   218  of   256
     total cpu time spent up to now is       23.7 secs

     Computing kpt #:   219  of   256
     total cpu time spent up to now is       23.8 secs

     Computing kpt #:   220  of   256
     total cpu time spent up to now is       23.9 secs

     Computing kpt #:   221  of   256
     total cpu time spent up to now is       24.0 secs

     Computing kpt #:   222  of   256
     total cpu time spent up to now is       24.1 secs

     Computing kpt #:   223  of   256
     total cpu time spent up to now is       24.2 secs

     Computing kpt #:   224  of   256
     total cpu time spent up to now is       24.3 secs

     Computing kpt #:   225  of   256
     total cpu time spent up to now is       24.5 secs

     Computing kpt #:   226  of   256
     total cpu time spent up to now is       24.6 secs

     Computing kpt #:   227  of   256
     total cpu time spent up to now is       24.7 secs

     Computing kpt #:   228  of   256
     total cpu time spent up to now is       24.9 secs

     Computing kpt #:   229  of   256
     total cpu time spent up to now is       25.0 secs

     Computing kpt #:   230  of   256
     total cpu time spent up to now is       25.1 secs

     Computing kpt #:   231  of   256
     total cpu time spent up to now is       25.2 secs

     Computing kpt #:   232  of   256
     total cpu time spent up to now is       25.3 secs

     Computing kpt #:   233  of   256
     total cpu time spent up to now is       25.4 secs

     Computing kpt #:   234  of   256
     total cpu time spent up to now is       25.5 secs

     Computing kpt #:   235  of   256
     total cpu time spent up to now is       25.6 secs

     Computing kpt #:   236  of   256
     total cpu time spent up to now is       25.7 secs

     Computing kpt #:   237  of   256
     total cpu time spent up to now is       25.8 secs

     Computing kpt #:   238  of   256
     total cpu time spent up to now is       25.9 secs

     Computing kpt #:   239  of   256
     total cpu time spent up to now is       26.1 secs

     Computing kpt #:   240  of   256
     total cpu time spent up to now is       26.2 secs

     Computing kpt #:   241  of   256
     total cpu time spent up to now is       26.3 secs

     Computing kpt #:   242  of   256
     total cpu time spent up to now is       26.4 secs

     Computing kpt #:   243  of   256
     total cpu time spent up to now is       26.5 secs

     Computing kpt #:   244  of   256
     total cpu time spent up to now is       26.6 secs

     Computing kpt #:   245  of   256
     total cpu time spent up to now is       26.7 secs

     Computing kpt #:   246  of   256
     total cpu time spent up to now is       26.8 secs

     Computing kpt #:   247  of   256
     total cpu time spent up to now is       26.9 secs

     Computing kpt #:   248  of   256
     total cpu time spent up to now is       27.0 secs

     Computing kpt #:   249  of   256
     total cpu time spent up to now is       27.1 secs

     Computing kpt #:   250  of   256
     total cpu time spent up to now is       27.2 secs

     Computing kpt #:   251  of   256
     total cpu time spent up to now is       27.3 secs

     Computing kpt #:   252  of   256
     total cpu time spent up to now is       27.4 secs

     Computing kpt #:   253  of   256
     total cpu time spent up to now is       27.5 secs

     Computing kpt #:   254  of   256
     total cpu time spent up to now is       27.6 secs

     Computing kpt #:   255  of   256
     total cpu time spent up to now is       27.8 secs

     Computing kpt #:   256  of   256
     total cpu time spent up to now is       27.9 secs

     ethr =  1.25E-12,  avg # of iterations = 31.2

     total cpu time spent up to now is       27.9 secs

     End of band structure calculation

          k =-0.1185 0.1250 0.1250 (   271 PWs)   bands (ev):

    -5.5729   4.7460   6.0065   6.0341   8.8655   9.2963   9.3274  11.0949
    13.6902  13.7369  14.8957  16.9987  18.7634  18.8151  22.7795  27.7012
    27.7778  27.9191  30.5783  30.5884  32.7756  32.7790  33.5725  36.3486
    38.2715  38.3260  39.2104  41.2233  41.2833  41.9263  43.7535  43.8242

     occupation numbers 
     1.0000   1.0000   1.0000   1.0000   0.0000   0.0000   0.0000   0.0000
     0.0000   0.0000   0.0000   0.0000   0.0000   0.0000   0.0000   0.0000
     0.0000   0.0000   0.0000   0.0000   0.0000   0.0000   0.0000   0.0000
     0.0000   0.0000   0.0000   0.0000   0.0000   0.0000   0.0000   0.0000

          k =-0.3685 0.3750-0.1250 (   262 PWs)   bands (ev):

    -4.5127   1.6829   3.9694   5.5292   9.0957  10.0007  10.1914  12.6341
    12.8996  16.0974  16.4841  18.7679  20.4894  21.8520  22.9791  24.5305
    25.3890  28.0273  28.6538  29.5610  32.7230  33.2153  33.6994  36.2671
    36.3360  37.4646  37.9444  38.8936  40.0581  41.1099  41.4192  43.9575

     occupation numbers 
     1.0000   1.0000   1.0000   1.0000   0.0000   0.0000   0.0000   0.0000
     0.0000   0.0000   0.0000   0.0000   0.0000   0.0000   0.0000   0.0000
     0.0000   0.0000   0.0000   0.0000   0.0000   0.0000   0.0000   0.0000
     0.0000   0.0000   0.0000   0.0000   0.0000   0.0000   0.0000   0.0000

          k = 0.3815-0.3750 0.6250 (   259 PWs)   bands (ev):

    -3.2791  -0.5509   4.0055   4.7177   8.5372   9.8374  10.4376  13.7883
    15.2890  16.9885  17.9049  18.1911  18.9426  21.4430  24.8034  26.3086
    26.7296  27.7446  28.6330  28.8737  31.2837  32.4096  33.0121  34.2904
    34.7298  36.0477  36.6456  36.6775  39.2228  40.1028  40.5509  40.7075

     occupation numbers 
     1.0000   1.0000   1.0000   1.0000   0.0000   0.0000   0.0000   0.0000
     0.0000   0.0000   0.0000   0.0000   0.0000   0.0000   0.0000   0.0000
     0.0000   0.0000   0.0000   0.0000   0.0000   0.0000   0.0000   0.0000
     0.0000   0.0000   0.0000   0.0000   0.0000   0.0000   0.0000   0.0000

          k = 0.1315-0.1250 0.3750 (   264 PWs)   bands (ev):

    -5.0071   3.0442   4.9512   5.0586   8.4710  10.0815  10.8318  11.1164
    13.9496  14.6822  16.2407  17.9009  19.6247  20.9197  24.0967  24.5412
    25.6461  28.0521  28.3402  29.5695  32.7179  33.8985  34.9526  36.3203
    38.2166  38.6822  38.7398  39.8284  40.3573  41.1594  42.1544  42.7197

     occupation numbers 
     1.0000   1.0000   1.0000   1.0000   0.0000   0.0000   0.0000   0.0000
     0.0000   0.0000   0.0000   0.0000   0.0000   0.0000   0.0000   0.0000
     0.0000   0.0000   0.0000   0.0000   0.0000   0.0000   0.0000   0.0000
     0.0000   0.0000   0.0000   0.0000   0.0000   0.0000   0.0000   0.0000

          k =-0.1185 0.6250 0.1250 (   259 PWs)   bands (ev):

    -3.9446   1.3956   3.5747   4.0370   7.6048   9.1555  12.4369  12.7093
    16.5015  16.5909  18.0309  19.7863  20.0981  21.3064  22.3377  23.4834
    24.9751  26.3096  28.4788  30.7512  31.6890  33.0081  33.0646  33.8989
    35.5567  35.9282  37.0061  39.6754  40.3726  42.1417  42.6312  43.4790

     occupation numbers 
     1.0000   1.0000   1.0000   1.0000   0.0000   0.0000   0.0000   0.0000
     0.0000   0.0000   0.0000   0.0000   0.0000   0.0000   0.0000   0.0000
     0.0000   0.0000   0.0000   0.0000   0.0000   0.0000   0.0000   0.0000
     0.0000   0.0000   0.0000   0.0000   0.0000   0.0000   0.0000   0.0000

          k = 0.6315-0.1250 0.8750 (   258 PWs)   bands (ev):

    -2.2189  -0.6366   2.1255   3.2678   8.6170  10.5377  11.7294  13.9232
    14.8516  17.5739  18.7246  20.6889  21.8798  22.4601  24.0020  24.7830
    25.2391  26.0431  27.5320  28.3391  29.3310  30.6736  31.4531  34.1268
    34.5560  35.4621  37.3064  37.7155  38.8347  39.1369  40.8624  43.1599

     occupation numbers 
     1.0000   1.0000   1.0000   1.0000   0.0000   0.0000   0.0000   0.0000
     0.0000   0.0000   0.0000   0.0000   0.0000   0.0000   0.0000   0.0000
     0.0000   0.0000   0.0000   0.0000   0.0000   0.0000   0.0000   0.0000
     0.0000   0.0000   0.0000   0.0000   0.0000   0.0000   0.0000   0.0000

          k = 0.3815 0.1250 0.6250 (   259 PWs)   bands (ev):

    -3.4811   0.4067   2.8813   4.3350   9.2531   9.8275  11.4430  12.3242
    15.4404  16.0652  18.3629  19.5085  20.7007  21.5932  23.7955  24.7291
    25.6141  27.6177  28.4375  29.3451  30.7518  32.1743  32.5197  33.6871
    35.3195  36.1503  37.8845  38.0564  38.9570  39.9657  41.0692  42.4321

     occupation numbers 
     1.0000   1.0000   1.0000   1.0000   0.0000   0.0000   0.0000   0.0000
     0.0000   0.0000   0.0000   0.0000   0.0000   0.0000   0.0000   0.0000
     0.0000   0.0000   0.0000   0.0000   0.0000   0.0000   0.0000   0.0000
     0.0000   0.0000   0.0000   0.0000   0.0000   0.0000   0.0000   0.0000

          k =-0.1185-0.8750 0.1250 (   254 PWs)   bands (ev):

    -2.4057  -0.5263   2.7926   3.5491   7.1370   8.1993  14.7340  14.8313
    17.2319  17.3886  18.8767  19.2388  21.2975  21.5462  22.3964  25.1147
    25.2492  25.8855  27.2590  28.8601  29.1009  30.0868  30.6792  32.5689
    36.1187  36.6346  38.4438  39.1594  39.9479  41.1330  42.3418  42.5988

     occupation numbers 
     1.0000   1.0000   1.0000   1.0000   0.0000   0.0000   0.0000   0.0000
     0.0000   0.0000   0.0000   0.0000   0.0000   0.0000   0.0000   0.0000
     0.0000   0.0000   0.0000   0.0000   0.0000   0.0000   0.0000   0.0000
     0.0000   0.0000   0.0000   0.0000   0.0000   0.0000   0.0000   0.0000

          k =-0.3685 0.3750 0.3750 (   256 PWs)   bands (ev):

    -4.0522   0.3139   5.1935   5.2107   8.0562   9.7897   9.8057  14.0910
    14.9978  15.0661  15.9697  20.3245  20.4079  20.4158  23.0635  25.0174
    25.0836  29.2475  30.4812  30.5900  30.5933  33.4572  33.5357  35.0823
    35.0838  35.8820  37.6100  39.2870  39.3849  40.3455  40.4397  40.4908

     occupation numbers 
     1.0000   1.0000   1.0000   1.0000   0.0000   0.0000   0.0000   0.0000
     0.0000   0.0000   0.0000   0.0000   0.0000   0.0000   0.0000   0.0000
     0.0000   0.0000   0.0000   0.0000   0.0000   0.0000   0.0000   0.0000
     0.0000   0.0000   0.0000   0.0000   0.0000   0.0000   0.0000   0.0000

          k = 0.3815-0.3750 1.1250 (   255 PWs)   bands (ev):

    -2.7850  -0.3639   2.2180   4.3884   8.1511  11.7704  11.8668  13.4140
    14.3335  14.4429  18.8817  21.4538  21.5534  22.4731  22.8834  25.1044
    25.9740  26.4881  28.3480  28.7566  31.3591  31.8081  32.4716  33.0215
    34.1691  35.0066  36.0406  36.7519  39.9948  40.9065  41.6722  42.5281

     occupation numbers 
     1.0000   1.0000   1.0000   1.0000   0.0000   0.0000   0.0000   0.0000
     0.0000   0.0000   0.0000   0.0000   0.0000   0.0000   0.0000   0.0000
     0.0000   0.0000   0.0000   0.0000   0.0000   0.0000   0.0000   0.0000
     0.0000   0.0000   0.0000   0.0000   0.0000   0.0000   0.0000   0.0000

          k = 0.3815 0.3750 0.1250 (   262 PWs)   bands (ev):

    -4.4729   1.6128   3.9108   5.5046   9.0992  10.0308  10.2057  12.6533
    12.9122  16.1289  16.6186  18.7990  20.4762  21.8439  23.0229  24.4826
    25.4116  28.1530  28.5940  29.5236  32.6125  33.1801  33.6649  36.1512
    36.2510  37.4650  37.8334  38.8166  40.1353  41.0985  41.3550  43.8664

     occupation numbers 
     1.0000   1.0000   1.0000   1.0000   0.0000   0.0000   0.0000   0.0000
     0.0000   0.0000   0.0000   0.0000   0.0000   0.0000   0.0000   0.0000
     0.0000   0.0000   0.0000   0.0000   0.0000   0.0000   0.0000   0.0000
     0.0000   0.0000   0.0000   0.0000   0.0000   0.0000   0.0000   0.0000

          k =-0.3685-0.3750 0.1250 (   262 PWs)   bands (ev):

    -4.5127   1.6829   3.9694   5.5292   9.0957  10.0007  10.1914  12.6341
    12.8996  16.0974  16.4841  18.7679  20.4894  21.8520  22.9791  24.5305
    25.3890  28.0273  28.6538  29.5610  32.7230  33.2153  33.6994  36.2671
    36.3360  37.4646  37.9444  38.8936  40.0581  41.1099  41.4192  43.9575

     occupation numbers 
     1.0000   1.0000   1.0000   1.0000   0.0000   0.0000   0.0000   0.0000
     0.0000   0.0000   0.0000   0.0000   0.0000   0.0000   0.0000   0.0000
     0.0000   0.0000   0.0000   0.0000   0.0000   0.0000   0.0000   0.0000
     0.0000   0.0000   0.0000   0.0000   0.0000   0.0000   0.0000   0.0000

          k = 0.3815-0.1250-0.3750 (   262 PWs)   bands (ev):

    -4.4729   1.6128   3.9108   5.5046   9.0992  10.0308  10.2057  12.6533
    12.9122  16.1289  16.6186  18.7990  20.4762  21.8439  23.0229  24.4826
    25.4116  28.1530  28.5940  29.5236  32.6125  33.1801  33.6649  36.1512
    36.2510  37.4650  37.8334  38.8166  40.1353  41.0985  41.3550  43.8664

     occupation numbers 
     1.0000   1.0000   1.0000   1.0000   0.0000   0.0000   0.0000   0.0000
     0.0000   0.0000   0.0000   0.0000   0.0000   0.0000   0.0000   0.0000
     0.0000   0.0000   0.0000   0.0000   0.0000   0.0000   0.0000   0.0000
     0.0000   0.0000   0.0000   0.0000   0.0000   0.0000   0.0000   0.0000

          k =-0.3685-0.1250 0.3750 (   262 PWs)   bands (ev):

    -4.5127   1.6829   3.9694   5.5292   9.0957  10.0007  10.1914  12.6341
    12.8996  16.0974  16.4841  18.7679  20.4894  21.8520  22.9791  24.5305
    25.3890  28.0273  28.6538  29.5610  32.7230  33.2153  33.6994  36.2671
    36.3360  37.4646  37.9444  38.8936  40.0581  41.1099  41.4192  43.9575

     occupation numbers 
     1.0000   1.0000   1.0000   1.0000   0.0000   0.0000   0.0000   0.0000
     0.0000   0.0000   0.0000   0.0000   0.0000   0.0000   0.0000   0.0000
     0.0000   0.0000   0.0000   0.0000   0.0000   0.0000   0.0000   0.0000
     0.0000   0.0000   0.0000   0.0000   0.0000   0.0000   0.0000   0.0000

          k = 0.3815 0.1250 0.3750 (   262 PWs)   bands (ev):

    -4.4729   1.6128   3.9108   5.5046   9.0992  10.0308  10.2057  12.6533
    12.9122  16.1289  16.6186  18.7990  20.4762  21.8439  23.0229  24.4826
    25.4116  28.1530  28.5940  29.5236  32.6125  33.1801  33.6649  36.1512
    36.2510  37.4650  37.8334  38.8166  40.1353  41.0985  41.3550  43.8664

     occupation numbers 
     1.0000   1.0000   1.0000   1.0000   0.0000   0.0000   0.0000   0.0000
     0.0000   0.0000   0.0000   0.0000   0.0000   0.0000   0.0000   0.0000
     0.0000   0.0000   0.0000   0.0000   0.0000   0.0000   0.0000   0.0000
     0.0000   0.0000   0.0000   0.0000   0.0000   0.0000   0.0000   0.0000

          k =-0.3685 0.1250-0.3750 (   262 PWs)   bands (ev):

    -4.5127   1.6829   3.9694   5.5292   9.0957  10.0007  10.1914  12.6341
    12.8996  16.0974  16.4841  18.7679  20.4894  21.8520  22.9791  24.5305
    25.3890  28.0273  28.6538  29.5610  32.7230  33.2153  33.6994  36.2671
    36.3360  37.4646  37.9444  38.8936  40.0581  41.1099  41.4192  43.9575

     occupation numbers 
     1.0000   1.0000   1.0000   1.0000   0.0000   0.0000   0.0000   0.0000
     0.0000   0.0000   0.0000   0.0000   0.0000   0.0000   0.0000   0.0000
     0.0000   0.0000   0.0000   0.0000   0.0000   0.0000   0.0000   0.0000
[...]
     0.0000   0.0000   0.0000   0.0000   0.0000   0.0000   0.0000   0.0000
     0.0000   0.0000   0.0000   0.0000   0.0000   0.0000   0.0000   0.0000
     0.0000   0.0000   0.0000   0.0000   0.0000   0.0000   0.0000   0.0000

          k = 0.3815 0.3750 0.3750 (   257 PWs)   bands (ev):

    -4.0187   0.2531   5.1868   5.2016   8.0463   9.7827   9.7996  14.0820
    15.0657  15.1355  16.0382  20.2458  20.3038  20.4135  23.0833  25.1233
    25.1885  29.3473  30.3495  30.5583  30.5632  33.4535  33.5376  34.9869
    34.9939  35.8602  37.6339  39.2646  39.3583  40.3092  40.3691  40.4010

     occupation numbers 
     1.0000   1.0000   1.0000   1.0000   0.0000   0.0000   0.0000   0.0000
     0.0000   0.0000   0.0000   0.0000   0.0000   0.0000   0.0000   0.0000
     0.0000   0.0000   0.0000   0.0000   0.0000   0.0000   0.0000   0.0000
     0.0000   0.0000   0.0000   0.0000   0.0000   0.0000   0.0000   0.0000

          k = 0.3815-0.3750-0.1250 (   262 PWs)   bands (ev):

    -4.4729   1.6128   3.9108   5.5046   9.0992  10.0308  10.2057  12.6533
    12.9122  16.1289  16.6186  18.7990  20.4762  21.8439  23.0229  24.4826
    25.4116  28.1530  28.5940  29.5236  32.6125  33.1801  33.6649  36.1512
    36.2510  37.4650  37.8334  38.8166  40.1353  41.0985  41.3550  43.8664

     occupation numbers 
     1.0000   1.0000   1.0000   1.0000   0.0000   0.0000   0.0000   0.0000
     0.0000   0.0000   0.0000   0.0000   0.0000   0.0000   0.0000   0.0000
     0.0000   0.0000   0.0000   0.0000   0.0000   0.0000   0.0000   0.0000
     0.0000   0.0000   0.0000   0.0000   0.0000   0.0000   0.0000   0.0000

          k =-0.3685 0.3750 1.1250 (   255 PWs)   bands (ev):

    -2.7461  -0.3931   2.1934   4.3591   8.1172  11.8285  11.9285  13.2841
    14.3916  14.5038  18.9489  21.3999  21.5205  22.6071  22.9623  25.0232
    25.9837  26.4255  28.3426  28.6490  31.3502  31.7187  32.5351  32.8813
    34.2367  35.1432  36.0428  36.6222  39.9672  40.9145  41.6224  42.5041

     occupation numbers 
     1.0000   1.0000   1.0000   1.0000   0.0000   0.0000   0.0000   0.0000
     0.0000   0.0000   0.0000   0.0000   0.0000   0.0000   0.0000   0.0000
     0.0000   0.0000   0.0000   0.0000   0.0000   0.0000   0.0000   0.0000
     0.0000   0.0000   0.0000   0.0000   0.0000   0.0000   0.0000   0.0000

          k =-0.3685-0.3750-1.1250 (   255 PWs)   bands (ev):

    -2.7461  -0.3931   2.1934   4.3591   8.1172  11.8285  11.9285  13.2841
    14.3916  14.5038  18.9489  21.3999  21.5205  22.6071  22.9623  25.0232
    25.9837  26.4255  28.3426  28.6490  31.3502  31.7187  32.5351  32.8813
    34.2367  35.1432  36.0428  36.6222  39.9672  40.9145  41.6224  42.5041

     occupation numbers 
     1.0000   1.0000   1.0000   1.0000   0.0000   0.0000   0.0000   0.0000
     0.0000   0.0000   0.0000   0.0000   0.0000   0.0000   0.0000   0.0000
     0.0000   0.0000   0.0000   0.0000   0.0000   0.0000   0.0000   0.0000
     0.0000   0.0000   0.0000   0.0000   0.0000   0.0000   0.0000   0.0000

          k = 0.3815 0.3750-1.1250 (   255 PWs)   bands (ev):

    -2.7850  -0.3639   2.2180   4.3884   8.1511  11.7704  11.8668  13.4140
    14.3335  14.4429  18.8817  21.4538  21.5534  22.4731  22.8834  25.1044
    25.9740  26.4881  28.3480  28.7566  31.3591  31.8081  32.4716  33.0215
    34.1691  35.0066  36.0406  36.7519  39.9948  40.9065  41.6722  42.5281

     occupation numbers 
     1.0000   1.0000   1.0000   1.0000   0.0000   0.0000   0.0000   0.0000
     0.0000   0.0000   0.0000   0.0000   0.0000   0.0000   0.0000   0.0000
     0.0000   0.0000   0.0000   0.0000   0.0000   0.0000   0.0000   0.0000
     0.0000   0.0000   0.0000   0.0000   0.0000   0.0000   0.0000   0.0000

          k =-0.3685 1.1250 0.3750 (   255 PWs)   bands (ev):

    -2.7461  -0.3931   2.1934   4.3591   8.1172  11.8285  11.9285  13.2841
    14.3916  14.5038  18.9489  21.3999  21.5205  22.6071  22.9623  25.0232
    25.9837  26.4255  28.3426  28.6490  31.3502  31.7187  32.5351  32.8813
    34.2367  35.1432  36.0428  36.6222  39.9672  40.9145  41.6224  42.5041

     occupation numbers 
     1.0000   1.0000   1.0000   1.0000   0.0000   0.0000   0.0000   0.0000
     0.0000   0.0000   0.0000   0.0000   0.0000   0.0000   0.0000   0.0000
     0.0000   0.0000   0.0000   0.0000   0.0000   0.0000   0.0000   0.0000
     0.0000   0.0000   0.0000   0.0000   0.0000   0.0000   0.0000   0.0000

          k = 0.3815 1.1250-0.3750 (   255 PWs)   bands (ev):

    -2.7850  -0.3639   2.2180   4.3884   8.1511  11.7704  11.8668  13.4140
    14.3335  14.4429  18.8817  21.4538  21.5534  22.4731  22.8834  25.1044
    25.9740  26.4881  28.3480  28.7566  31.3591  31.8081  32.4716  33.0215
    34.1691  35.0066  36.0406  36.7519  39.9948  40.9065  41.6722  42.5281

     occupation numbers 
     1.0000   1.0000   1.0000   1.0000   0.0000   0.0000   0.0000   0.0000
     0.0000   0.0000   0.0000   0.0000   0.0000   0.0000   0.0000   0.0000
     0.0000   0.0000   0.0000   0.0000   0.0000   0.0000   0.0000   0.0000
     0.0000   0.0000   0.0000   0.0000   0.0000   0.0000   0.0000   0.0000

          k =-0.3685-1.1250-0.3750 (   255 PWs)   bands (ev):

    -2.7461  -0.3931   2.1934   4.3591   8.1172  11.8285  11.9285  13.2841
    14.3916  14.5038  18.9489  21.3999  21.5205  22.6071  22.9623  25.0232
    25.9837  26.4255  28.3426  28.6490  31.3502  31.7187  32.5351  32.8813
    34.2367  35.1432  36.0428  36.6222  39.9672  40.9145  41.6224  42.5041

     occupation numbers 
     1.0000   1.0000   1.0000   1.0000   0.0000   0.0000   0.0000   0.0000
     0.0000   0.0000   0.0000   0.0000   0.0000   0.0000   0.0000   0.0000
     0.0000   0.0000   0.0000   0.0000   0.0000   0.0000   0.0000   0.0000
     0.0000   0.0000   0.0000   0.0000   0.0000   0.0000   0.0000   0.0000

          k = 0.3815-1.1250 0.3750 (   255 PWs)   bands (ev):

    -2.7850  -0.3639   2.2180   4.3884   8.1511  11.7704  11.8668  13.4140
    14.3335  14.4429  18.8817  21.4538  21.5534  22.4731  22.8834  25.1044
    25.9740  26.4881  28.3480  28.7566  31.3591  31.8081  32.4716  33.0215
    34.1691  35.0066  36.0406  36.7519  39.9948  40.9065  41.6722  42.5281

     occupation numbers 
     1.0000   1.0000   1.0000   1.0000   0.0000   0.0000   0.0000   0.0000
     0.0000   0.0000   0.0000   0.0000   0.0000   0.0000   0.0000   0.0000
     0.0000   0.0000   0.0000   0.0000   0.0000   0.0000   0.0000   0.0000
     0.0000   0.0000   0.0000   0.0000   0.0000   0.0000   0.0000   0.0000

          k = 1.1315 0.3750-0.3750 (   255 PWs)   bands (ev):

    -2.7714  -0.3927   2.2414   4.3791   8.1407  11.7715  11.8310  13.3537
    14.4490  14.4967  18.8415  21.3636  21.4752  22.5458  22.9667  25.1472
    26.0506  26.4386  28.3232  28.6418  31.4291  31.8327  32.5239  32.8692
    34.1857  35.1001  36.0384  36.7808  39.8502  40.8952  41.6389  42.5515

     occupation numbers 
     1.0000   1.0000   1.0000   1.0000   0.0000   0.0000   0.0000   0.0000
     0.0000   0.0000   0.0000   0.0000   0.0000   0.0000   0.0000   0.0000
     0.0000   0.0000   0.0000   0.0000   0.0000   0.0000   0.0000   0.0000
     0.0000   0.0000   0.0000   0.0000   0.0000   0.0000   0.0000   0.0000

          k = 1.1315-0.3750 0.3750 (   255 PWs)   bands (ev):

    -2.7714  -0.3927   2.2414   4.3791   8.1407  11.7715  11.8310  13.3537
    14.4490  14.4967  18.8415  21.3636  21.4752  22.5458  22.9667  25.1472
    26.0506  26.4386  28.3232  28.6418  31.4291  31.8327  32.5239  32.8692
    34.1857  35.1001  36.0384  36.7808  39.8502  40.8952  41.6389  42.5515

     occupation numbers 
     1.0000   1.0000   1.0000   1.0000   0.0000   0.0000   0.0000   0.0000
     0.0000   0.0000   0.0000   0.0000   0.0000   0.0000   0.0000   0.0000
     0.0000   0.0000   0.0000   0.0000   0.0000   0.0000   0.0000   0.0000
     0.0000   0.0000   0.0000   0.0000   0.0000   0.0000   0.0000   0.0000

          k =-1.1185-0.3750-0.3750 (   255 PWs)   bands (ev):

    -2.7600  -0.3647   2.1708   4.3697   8.1260  11.8791  11.9123  13.3451
    14.3418  14.3837  18.9895  21.5388  21.5455  22.5211  22.8950  24.9831
    25.9161  26.4648  28.3726  28.7600  31.2927  31.6912  32.4762  33.0338
    34.2235  35.0489  36.0386  36.5925  40.1103  40.9405  41.6553  42.4775

     occupation numbers 
     1.0000   1.0000   1.0000   1.0000   0.0000   0.0000   0.0000   0.0000
     0.0000   0.0000   0.0000   0.0000   0.0000   0.0000   0.0000   0.0000
     0.0000   0.0000   0.0000   0.0000   0.0000   0.0000   0.0000   0.0000
     0.0000   0.0000   0.0000   0.0000   0.0000   0.0000   0.0000   0.0000

          k =-1.1185 0.3750 0.3750 (   255 PWs)   bands (ev):

    -2.7600  -0.3647   2.1708   4.3697   8.1260  11.8791  11.9123  13.3451
    14.3418  14.3837  18.9895  21.5388  21.5455  22.5211  22.8950  24.9831
    25.9161  26.4648  28.3726  28.7600  31.2927  31.6912  32.4762  33.0338
    34.2235  35.0489  36.0386  36.5925  40.1103  40.9405  41.6553  42.4775

     occupation numbers 
     1.0000   1.0000   1.0000   1.0000   0.0000   0.0000   0.0000   0.0000
     0.0000   0.0000   0.0000   0.0000   0.0000   0.0000   0.0000   0.0000
     0.0000   0.0000   0.0000   0.0000   0.0000   0.0000   0.0000   0.0000
     0.0000   0.0000   0.0000   0.0000   0.0000   0.0000   0.0000   0.0000

          k =-0.3685 0.3750-1.1250 (   255 PWs)   bands (ev):

    -2.7461  -0.3931   2.1934   4.3591   8.1172  11.8285  11.9285  13.2841
    14.3916  14.5038  18.9489  21.3999  21.5205  22.6071  22.9623  25.0232
    25.9837  26.4255  28.3426  28.6490  31.3502  31.7187  32.5351  32.8813
    34.2367  35.1432  36.0428  36.6222  39.9672  40.9145  41.6224  42.5041

     occupation numbers 
     1.0000   1.0000   1.0000   1.0000   0.0000   0.0000   0.0000   0.0000
     0.0000   0.0000   0.0000   0.0000   0.0000   0.0000   0.0000   0.0000
     0.0000   0.0000   0.0000   0.0000   0.0000   0.0000   0.0000   0.0000
     0.0000   0.0000   0.0000   0.0000   0.0000   0.0000   0.0000   0.0000

          k = 0.3815-0.3750-1.1250 (   255 PWs)   bands (ev):

    -2.7850  -0.3639   2.2180   4.3884   8.1511  11.7704  11.8668  13.4140
    14.3335  14.4429  18.8817  21.4538  21.5534  22.4731  22.8834  25.1044
    25.9740  26.4881  28.3480  28.7566  31.3591  31.8081  32.4716  33.0215
    34.1691  35.0066  36.0406  36.7519  39.9948  40.9065  41.6722  42.5281

     occupation numbers 
     1.0000   1.0000   1.0000   1.0000   0.0000   0.0000   0.0000   0.0000
     0.0000   0.0000   0.0000   0.0000   0.0000   0.0000   0.0000   0.0000
     0.0000   0.0000   0.0000   0.0000   0.0000   0.0000   0.0000   0.0000
     0.0000   0.0000   0.0000   0.0000   0.0000   0.0000   0.0000   0.0000

          k = 0.3815 0.3750 1.1250 (   255 PWs)   bands (ev):

    -2.7850  -0.3639   2.2180   4.3884   8.1511  11.7704  11.8668  13.4140
    14.3335  14.4429  18.8817  21.4538  21.5534  22.4731  22.8834  25.1044
    25.9740  26.4881  28.3480  28.7566  31.3591  31.8081  32.4716  33.0215
    34.1691  35.0066  36.0406  36.7519  39.9948  40.9065  41.6722  42.5281

     occupation numbers 
     1.0000   1.0000   1.0000   1.0000   0.0000   0.0000   0.0000   0.0000
     0.0000   0.0000   0.0000   0.0000   0.0000   0.0000   0.0000   0.0000
     0.0000   0.0000   0.0000   0.0000   0.0000   0.0000   0.0000   0.0000
     0.0000   0.0000   0.0000   0.0000   0.0000   0.0000   0.0000   0.0000

          k =-0.3685-0.3750 1.1250 (   255 PWs)   bands (ev):

    -2.7461  -0.3931   2.1934   4.3591   8.1172  11.8285  11.9285  13.2841
    14.3916  14.5038  18.9489  21.3999  21.5205  22.6071  22.9623  25.0232
    25.9837  26.4255  28.3426  28.6490  31.3502  31.7187  32.5351  32.8813
    34.2367  35.1432  36.0428  36.6222  39.9672  40.9145  41.6224  42.5041

     occupation numbers 
     1.0000   1.0000   1.0000   1.0000   0.0000   0.0000   0.0000   0.0000
     0.0000   0.0000   0.0000   0.0000   0.0000   0.0000   0.0000   0.0000
     0.0000   0.0000   0.0000   0.0000   0.0000   0.0000   0.0000   0.0000
     0.0000   0.0000   0.0000   0.0000   0.0000   0.0000   0.0000   0.0000

          k = 0.3815-1.1250-0.3750 (   255 PWs)   bands (ev):

    -2.7850  -0.3639   2.2180   4.3884   8.1511  11.7704  11.8668  13.4140
    14.3335  14.4429  18.8817  21.4538  21.5534  22.4731  22.8834  25.1044
    25.9740  26.4881  28.3480  28.7566  31.3591  31.8081  32.4716  33.0215
    34.1691  35.0066  36.0406  36.7519  39.9948  40.9065  41.6722  42.5281

     occupation numbers 
     1.0000   1.0000   1.0000   1.0000   0.0000   0.0000   0.0000   0.0000
     0.0000   0.0000   0.0000   0.0000   0.0000   0.0000   0.0000   0.0000
     0.0000   0.0000   0.0000   0.0000   0.0000   0.0000   0.0000   0.0000
     0.0000   0.0000   0.0000   0.0000   0.0000   0.0000   0.0000   0.0000

          k =-0.3685-1.1250 0.3750 (   255 PWs)   bands (ev):

    -2.7461  -0.3931   2.1934   4.3591   8.1172  11.8285  11.9285  13.2841
    14.3916  14.5038  18.9489  21.3999  21.5205  22.6071  22.9623  25.0232
    25.9837  26.4255  28.3426  28.6490  31.3502  31.7187  32.5351  32.8813
    34.2367  35.1432  36.0428  36.6222  39.9672  40.9145  41.6224  42.5041

     occupation numbers 
     1.0000   1.0000   1.0000   1.0000   0.0000   0.0000   0.0000   0.0000
     0.0000   0.0000   0.0000   0.0000   0.0000   0.0000   0.0000   0.0000
     0.0000   0.0000   0.0000   0.0000   0.0000   0.0000   0.0000   0.0000
     0.0000   0.0000   0.0000   0.0000   0.0000   0.0000   0.0000   0.0000

          k = 0.3815 1.1250 0.3750 (   255 PWs)   bands (ev):

    -2.7850  -0.3639   2.2180   4.3884   8.1511  11.7704  11.8668  13.4140
    14.3335  14.4429  18.8817  21.4538  21.5534  22.4731  22.8834  25.1044
    25.9740  26.4881  28.3480  28.7566  31.3591  31.8081  32.4716  33.0215
    34.1691  35.0066  36.0406  36.7519  39.9948  40.9065  41.6722  42.5281

     occupation numbers 
     1.0000   1.0000   1.0000   1.0000   0.0000   0.0000   0.0000   0.0000
     0.0000   0.0000   0.0000   0.0000   0.0000   0.0000   0.0000   0.0000
     0.0000   0.0000   0.0000   0.0000   0.0000   0.0000   0.0000   0.0000
     0.0000   0.0000   0.0000   0.0000   0.0000   0.0000   0.0000   0.0000

          k =-0.3685 1.1250-0.3750 (   255 PWs)   bands (ev):

    -2.7461  -0.3931   2.1934   4.3591   8.1172  11.8285  11.9285  13.2841
    14.3916  14.5038  18.9489  21.3999  21.5205  22.6071  22.9623  25.0232
    25.9837  26.4255  28.3426  28.6490  31.3502  31.7187  32.5351  32.8813
    34.2367  35.1432  36.0428  36.6222  39.9672  40.9145  41.6224  42.5041

     occupation numbers 
     1.0000   1.0000   1.0000   1.0000   0.0000   0.0000   0.0000   0.0000
     0.0000   0.0000   0.0000   0.0000   0.0000   0.0000   0.0000   0.0000
     0.0000   0.0000   0.0000   0.0000   0.0000   0.0000   0.0000   0.0000
     0.0000   0.0000   0.0000   0.0000   0.0000   0.0000   0.0000   0.0000

          k =-1.1185-0.3750 0.3750 (   255 PWs)   bands (ev):

    -2.7600  -0.3647   2.1708   4.3697   8.1260  11.8791  11.9123  13.3451
    14.3418  14.3837  18.9895  21.5388  21.5455  22.5211  22.8950  24.9831
    25.9161  26.4648  28.3726  28.7600  31.2927  31.6912  32.4762  33.0338
    34.2235  35.0489  36.0386  36.5925  40.1103  40.9405  41.6553  42.4775

     occupation numbers 
     1.0000   1.0000   1.0000   1.0000   0.0000   0.0000   0.0000   0.0000
     0.0000   0.0000   0.0000   0.0000   0.0000   0.0000   0.0000   0.0000
     0.0000   0.0000   0.0000   0.0000   0.0000   0.0000   0.0000   0.0000
     0.0000   0.0000   0.0000   0.0000   0.0000   0.0000   0.0000   0.0000

          k =-1.1185 0.3750-0.3750 (   255 PWs)   bands (ev):

    -2.7600  -0.3647   2.1708   4.3697   8.1260  11.8791  11.9123  13.3451
    14.3418  14.3837  18.9895  21.5388  21.5455  22.5211  22.8950  24.9831
    25.9161  26.4648  28.3726  28.7600  31.2927  31.6912  32.4762  33.0338
    34.2235  35.0489  36.0386  36.5925  40.1103  40.9405  41.6553  42.4775

     occupation numbers 
     1.0000   1.0000   1.0000   1.0000   0.0000   0.0000   0.0000   0.0000
     0.0000   0.0000   0.0000   0.0000   0.0000   0.0000   0.0000   0.0000
     0.0000   0.0000   0.0000   0.0000   0.0000   0.0000   0.0000   0.0000
     0.0000   0.0000   0.0000   0.0000   0.0000   0.0000   0.0000   0.0000

          k = 1.1315 0.3750 0.3750 (   255 PWs)   bands (ev):

    -2.7714  -0.3927   2.2414   4.3791   8.1407  11.7715  11.8310  13.3537
    14.4490  14.4967  18.8415  21.3636  21.4752  22.5458  22.9667  25.1472
    26.0506  26.4386  28.3232  28.6418  31.4291  31.8327  32.5239  32.8692
    34.1857  35.1001  36.0384  36.7808  39.8502  40.8952  41.6389  42.5515

     occupation numbers 
     1.0000   1.0000   1.0000   1.0000   0.0000   0.0000   0.0000   0.0000
     0.0000   0.0000   0.0000   0.0000   0.0000   0.0000   0.0000   0.0000
     0.0000   0.0000   0.0000   0.0000   0.0000   0.0000   0.0000   0.0000
     0.0000   0.0000   0.0000   0.0000   0.0000   0.0000   0.0000   0.0000

          k = 1.1315-0.3750-0.3750 (   255 PWs)   bands (ev):

    -2.7714  -0.3927   2.2414   4.3791   8.1407  11.7715  11.8310  13.3537
    14.4490  14.4967  18.8415  21.3636  21.4752  22.5458  22.9667  25.1472
    26.0506  26.4386  28.3232  28.6418  31.4291  31.8327  32.5239  32.8692
    34.1857  35.1001  36.0384  36.7808  39.8502  40.8952  41.6389  42.5515

     occupation numbers 
     1.0000   1.0000   1.0000   1.0000   0.0000   0.0000   0.0000   0.0000
     0.0000   0.0000   0.0000   0.0000   0.0000   0.0000   0.0000   0.0000
     0.0000   0.0000   0.0000   0.0000   0.0000   0.0000   0.0000   0.0000
     0.0000   0.0000   0.0000   0.0000   0.0000   0.0000   0.0000   0.0000

     highest occupied, lowest unoccupied level (ev):     6.0341    7.1370

     Writing all to output data dir ./Si_shift3_bse_nscf.save/

     init_run     :      0.01s CPU      0.03s WALL (       1 calls)
     electrons    :     27.44s CPU     27.82s WALL (       1 calls)

     Called by init_run:
     wfcinit      :      0.00s CPU      0.00s WALL (       1 calls)
     wfcinit:atom :      0.01s CPU      0.01s WALL (     256 calls)
     wfcinit:wfcr :      0.98s CPU      1.01s WALL (     256 calls)
     potinit      :      0.00s CPU      0.02s WALL (       1 calls)
     hinit0       :      0.01s CPU      0.01s WALL (       1 calls)

     Called by electrons:
     c_bands      :     27.43s CPU     27.81s WALL (       1 calls)
     v_of_rho     :      0.00s CPU      0.00s WALL (       1 calls)
     v_h          :      0.00s CPU      0.00s WALL (       1 calls)
     v_xc         :      0.00s CPU      0.00s WALL (       1 calls)

     Called by c_bands:
     init_us_2    :      0.01s CPU      0.01s WALL (     256 calls)
     init_us_2:cp :      0.01s CPU      0.01s WALL (     256 calls)
     cegterg      :     26.34s CPU     26.67s WALL (     518 calls)

     Called by sum_band:

     Called by *egterg:
     cdiaghg      :      7.92s CPU      8.03s WALL (    8252 calls)
     cegterg:over :      0.90s CPU      0.92s WALL (    7996 calls)
     cegterg:upda :      0.67s CPU      0.68s WALL (    7996 calls)
     cegterg:last :      1.03s CPU      1.04s WALL (    4602 calls)
     h_psi        :     16.47s CPU     16.68s WALL (    8770 calls)
     g_psi        :      0.10s CPU      0.10s WALL (    7996 calls)

     Called by h_psi:
     h_psi:calbec :      0.16s CPU      0.16s WALL (    8770 calls)
     vloc_psi     :     16.13s CPU     16.33s WALL (    8770 calls)
     add_vuspsi   :      0.12s CPU      0.12s WALL (    8770 calls)

     General routines
     calbec       :      0.15s CPU      0.15s WALL (    8770 calls)
     fft          :      0.00s CPU      0.00s WALL (       3 calls)
     fftw         :     14.67s CPU     14.86s WALL (  307822 calls)
     davcio       :      0.02s CPU      0.04s WALL (     512 calls)

     Parallel routines

     PWSCF        :     27.50s CPU     27.92s WALL


   This run was terminated on:   0:47:19   1Apr2024            

=------------------------------------------------------------------------------=
   JOB DONE.
=------------------------------------------------------------------------------=
