Authorization required, but no authorization protocol specified
Authorization required, but no authorization protocol specified
Authorization required, but no authorization protocol specified

     Program PWSCF v.7.1 starts on  1Apr2024 at  0:41:37 

     This program is part of the open-source Quantum ESPRESSO suite
     for quantum simulation of materials; please cite
         "P. Giannozzi et al., J. Phys.:Condens. Matter 21 395502 (2009);
         "P. Giannozzi et al., J. Phys.:Condens. Matter 29 465901 (2017);
         "P. Giannozzi et al., J. Chem. Phys. 152 154105 (2020);
          URL http://www.quantum-espresso.org", 
     in publications or presentations arising from this work. More details at
     http://www.quantum-espresso.org/quote

     Parallel version (MPI), running on     1 processors

     MPI processes distributed on     1 nodes
     494 MiB available memory on the printing compute node when the environment starts

     Waiting for input...
     Reading input from standard input

     Current dimensions of program PWSCF are:
     Max number of different atomic species (ntypx) = 10
     Max number of k-points (npk) =  40000
     Max angular momentum in pseudopotentials (lmaxx) =  4

     Atomic positions and unit cell read from directory:
     ./Si_shift1_bse_nscf.save/


     Subspace diagonalization in iterative solution of the eigenvalue problem:
     a serial algorithm will be used


     G-vector sticks info
     --------------------
     sticks:   dense  smooth     PW     G-vecs:    dense   smooth      PW
     Sum         211     211     85                 2085     2085     459

     Using Slab Decomposition



     bravais-lattice index     =            2
     lattice parameter (alat)  =      10.1830  a.u.
     unit-cell volume          =     263.9777 (a.u.)^3
     number of atoms/cell      =            2
     number of atomic types    =            1
     number of electrons       =         8.00
     number of Kohn-Sham states=           32
     kinetic-energy cutoff     =      15.0000  Ry
     charge density cutoff     =      60.0000  Ry
     Exchange-correlation=  SLA  PZ   NOGX NOGC
                           (   1   1   0   0   0   0   0)

     celldm(1)=  10.183000  celldm(2)=   0.000000  celldm(3)=   0.000000
     celldm(4)=   0.000000  celldm(5)=   0.000000  celldm(6)=   0.000000

     crystal axes: (cart. coord. in units of alat)
               a(1) = (  -0.500000   0.000000   0.500000 )  
               a(2) = (   0.000000   0.500000   0.500000 )  
               a(3) = (  -0.500000   0.500000   0.000000 )  

     reciprocal axes: (cart. coord. in units 2 pi/alat)
               b(1) = ( -1.000000 -1.000000  1.000000 )  
               b(2) = (  1.000000  1.000000  1.000000 )  
               b(3) = ( -1.000000  1.000000 -1.000000 )  


     PseudoPot. # 1 for Si read from file:
     ./Si.vbc.UPF
     MD5 check sum: 7974b67c806a44bbea7c2da40a3c413a
     Pseudo is Norm-conserving, Zval =  4.0
     Generated by new atomic code, or converted to UPF format
     Using radial grid of  431 points,  2 beta functions with: 
                l(1) =   0
                l(2) =   1

     atomic species   valence    mass     pseudopotential
        Si             4.00    28.08600     Si( 1.00)

     No symmetry found


                                    s                        frac. trans.

      isym =  1     identity                                     

 cryst.   s( 1) = (     1          0          0      )
                  (     0          1          0      )
                  (     0          0          1      )

 cart.    s( 1) = (  1.0000000  0.0000000  0.0000000 )
                  (  0.0000000  1.0000000  0.0000000 )
                  (  0.0000000  0.0000000  1.0000000 )


     point group C_1 (1)    
     there are  1 classes
     the character table:

       E    
A      1.00

     the symmetry operations in each class and the name of the first element:

     E        1
          identity                                               

   Cartesian axes

     site n.     atom                  positions (alat units)
         1           Si  tau(   1) = (   0.0000000   0.0000000   0.0000000  )
         2           Si  tau(   2) = (   0.2500000   0.2500000   0.2500000  )

   Crystallographic axes

     site n.     atom                  positions (cryst. coord.)
         1           Si  tau(   1) = (  0.0000000  0.0000000  0.0000000  )
         2           Si  tau(   2) = ( -0.2500000  0.7500000 -0.2500000  )

     number of k points=   256
                       cart. coord. in units 2pi/alat
        k(    1) = (  -0.1249190   0.1250000   0.1250000), wk =   0.0078125
        k(    2) = (  -0.3749190   0.3750000  -0.1250000), wk =   0.0078125
        k(    3) = (   0.3750810  -0.3750000   0.6250000), wk =   0.0078125
        k(    4) = (   0.1250810  -0.1250000   0.3750000), wk =   0.0078125
        k(    5) = (  -0.1249190   0.6250000   0.1250000), wk =   0.0078125
        k(    6) = (   0.6250810  -0.1250000   0.8750000), wk =   0.0078125
        k(    7) = (   0.3750810   0.1250000   0.6250000), wk =   0.0078125
        k(    8) = (  -0.1249190  -0.8750000   0.1250000), wk =   0.0078125
        k(    9) = (  -0.3749190   0.3750000   0.3750000), wk =   0.0078125
        k(   10) = (   0.3750810  -0.3750000   1.1250000), wk =   0.0078125
        k(   11) = (   0.3750810   0.3750000   0.1250000), wk =   0.0078125
        k(   12) = (  -0.3749190  -0.3750000   0.1250000), wk =   0.0078125
        k(   13) = (   0.3750810  -0.1250000  -0.3750000), wk =   0.0078125
        k(   14) = (  -0.3749190  -0.1250000   0.3750000), wk =   0.0078125
        k(   15) = (   0.3750810   0.1250000   0.3750000), wk =   0.0078125
        k(   16) = (  -0.3749190   0.1250000  -0.3750000), wk =   0.0078125
        k(   17) = (  -0.1249190  -0.3750000   0.3750000), wk =   0.0078125
        k(   18) = (  -0.1249190   0.3750000  -0.3750000), wk =   0.0078125
        k(   19) = (   0.1250810   0.3750000   0.3750000), wk =   0.0078125
        k(   20) = (   0.1250810  -0.3750000  -0.3750000), wk =   0.0078125
        k(   21) = (   0.3750810  -0.3750000   0.1250000), wk =   0.0078125
        k(   22) = (  -0.3749190   0.3750000   0.1250000), wk =   0.0078125
        k(   23) = (  -0.3749190  -0.3750000  -0.1250000), wk =   0.0078125
        k(   24) = (   0.3750810   0.3750000  -0.1250000), wk =   0.0078125
        k(   25) = (  -0.3749190   0.1250000   0.3750000), wk =   0.0078125
        k(   26) = (   0.3750810   0.1250000  -0.3750000), wk =   0.0078125
        k(   27) = (  -0.3749190  -0.1250000  -0.3750000), wk =   0.0078125
        k(   28) = (   0.3750810  -0.1250000   0.3750000), wk =   0.0078125
        k(   29) = (   0.1250810   0.3750000  -0.3750000), wk =   0.0078125
        k(   30) = (   0.1250810  -0.3750000   0.3750000), wk =   0.0078125
        k(   31) = (  -0.1249190  -0.3750000  -0.3750000), wk =   0.0078125
        k(   32) = (  -0.1249190   0.3750000   0.3750000), wk =   0.0078125
        k(   33) = (   0.1250810   0.1250000  -0.1250000), wk =   0.0078125
        k(   34) = (  -0.3749190   0.3750000   0.6250000), wk =   0.0078125
        k(   35) = (  -0.3749190  -0.3750000  -0.6250000), wk =   0.0078125
        k(   36) = (   0.3750810   0.3750000  -0.6250000), wk =   0.0078125
        k(   37) = (  -0.3749190   0.6250000   0.3750000), wk =   0.0078125
        k(   38) = (   0.3750810   0.6250000  -0.3750000), wk =   0.0078125
        k(   39) = (  -0.3749190  -0.6250000  -0.3750000), wk =   0.0078125
        k(   40) = (   0.3750810  -0.6250000   0.3750000), wk =   0.0078125
        k(   41) = (   0.6250810   0.3750000  -0.3750000), wk =   0.0078125
        k(   42) = (   0.6250810  -0.3750000   0.3750000), wk =   0.0078125
        k(   43) = (  -0.6249190  -0.3750000  -0.3750000), wk =   0.0078125
        k(   44) = (  -0.6249190   0.3750000   0.3750000), wk =   0.0078125
        k(   45) = (  -0.3749190   0.3750000  -0.6250000), wk =   0.0078125
        k(   46) = (   0.3750810  -0.3750000  -0.6250000), wk =   0.0078125
        k(   47) = (   0.3750810   0.3750000   0.6250000), wk =   0.0078125
        k(   48) = (  -0.3749190  -0.3750000   0.6250000), wk =   0.0078125
        k(   49) = (   0.3750810  -0.6250000  -0.3750000), wk =   0.0078125
        k(   50) = (  -0.3749190  -0.6250000   0.3750000), wk =   0.0078125
        k(   51) = (   0.3750810   0.6250000   0.3750000), wk =   0.0078125
        k(   52) = (  -0.3749190   0.6250000  -0.3750000), wk =   0.0078125
        k(   53) = (  -0.6249190  -0.3750000   0.3750000), wk =   0.0078125
        k(   54) = (  -0.6249190   0.3750000  -0.3750000), wk =   0.0078125
        k(   55) = (   0.6250810   0.3750000   0.3750000), wk =   0.0078125
        k(   56) = (   0.6250810  -0.3750000  -0.3750000), wk =   0.0078125
        k(   57) = (  -0.1249190  -0.1250000  -0.1250000), wk =   0.0078125
        k(   58) = (  -0.1249190   0.1250000   0.3750000), wk =   0.0078125
        k(   59) = (  -0.1249190  -0.1250000  -0.3750000), wk =   0.0078125
        k(   60) = (   0.1250810   0.1250000  -0.3750000), wk =   0.0078125
        k(   61) = (  -0.1249190   0.3750000   0.1250000), wk =   0.0078125
        k(   62) = (   0.1250810   0.3750000  -0.1250000), wk =   0.0078125
        k(   63) = (  -0.1249190  -0.3750000  -0.1250000), wk =   0.0078125
        k(   64) = (   0.1250810  -0.3750000   0.1250000), wk =   0.0078125
        k(   65) = (   0.3750810   0.1250000  -0.1250000), wk =   0.0078125
        k(   66) = (   0.3750810  -0.1250000   0.1250000), wk =   0.0078125
        k(   67) = (  -0.3749190  -0.1250000  -0.1250000), wk =   0.0078125
        k(   68) = (  -0.3749190   0.1250000   0.1250000), wk =   0.0078125
        k(   69) = (  -0.1249190   0.1250000  -0.3750000), wk =   0.0078125
        k(   70) = (   0.1250810  -0.1250000  -0.3750000), wk =   0.0078125
        k(   71) = (   0.1250810   0.1250000   0.3750000), wk =   0.0078125
        k(   72) = (  -0.1249190  -0.1250000   0.3750000), wk =   0.0078125
        k(   73) = (   0.1250810  -0.3750000  -0.1250000), wk =   0.0078125
        k(   74) = (  -0.1249190  -0.3750000   0.1250000), wk =   0.0078125
        k(   75) = (   0.1250810   0.3750000   0.1250000), wk =   0.0078125
        k(   76) = (  -0.1249190   0.3750000  -0.1250000), wk =   0.0078125
        k(   77) = (  -0.3749190  -0.1250000   0.1250000), wk =   0.0078125
        k(   78) = (  -0.3749190   0.1250000  -0.1250000), wk =   0.0078125
        k(   79) = (   0.3750810   0.1250000   0.1250000), wk =   0.0078125
        k(   80) = (   0.3750810  -0.1250000  -0.1250000), wk =   0.0078125
        k(   81) = (   0.1250810  -0.1250000  -0.1250000), wk =   0.0078125
        k(   82) = (   0.1250810  -0.6250000   0.1250000), wk =   0.0078125
        k(   83) = (   0.1250810   0.6250000  -0.1250000), wk =   0.0078125
        k(   84) = (  -0.1249190  -0.6250000  -0.1250000), wk =   0.0078125
        k(   85) = (   0.6250810   0.1250000  -0.1250000), wk =   0.0078125
        k(   86) = (  -0.6249190   0.1250000   0.1250000), wk =   0.0078125
        k(   87) = (   0.6250810  -0.1250000   0.1250000), wk =   0.0078125
        k(   88) = (  -0.6249190  -0.1250000  -0.1250000), wk =   0.0078125
        k(   89) = (   0.1250810  -0.1250000   0.6250000), wk =   0.0078125
        k(   90) = (   0.1250810   0.1250000  -0.6250000), wk =   0.0078125
        k(   91) = (  -0.1249190   0.1250000   0.6250000), wk =   0.0078125
        k(   92) = (  -0.1249190  -0.1250000  -0.6250000), wk =   0.0078125
        k(   93) = (   0.1250810  -0.6250000  -0.1250000), wk =   0.0078125
        k(   94) = (  -0.1249190   0.6250000  -0.1250000), wk =   0.0078125
        k(   95) = (  -0.1249190  -0.6250000   0.1250000), wk =   0.0078125
        k(   96) = (   0.1250810   0.6250000   0.1250000), wk =   0.0078125
        k(   97) = (  -0.6249190  -0.1250000   0.1250000), wk =   0.0078125
        k(   98) = (   0.6250810  -0.1250000  -0.1250000), wk =   0.0078125
        k(   99) = (  -0.6249190   0.1250000  -0.1250000), wk =   0.0078125
        k(  100) = (   0.6250810   0.1250000   0.1250000), wk =   0.0078125
        k(  101) = (  -0.1249190   0.1250000  -0.6250000), wk =   0.0078125
        k(  102) = (  -0.1249190  -0.1250000   0.6250000), wk =   0.0078125
        k(  103) = (   0.1250810  -0.1250000  -0.6250000), wk =   0.0078125
        k(  104) = (   0.1250810   0.1250000   0.6250000), wk =   0.0078125
        k(  105) = (  -0.1249190   0.1250000  -0.1250000), wk =   0.0078125
        k(  106) = (  -0.6249190   0.1250000   0.8750000), wk =   0.0078125
        k(  107) = (  -0.6249190  -0.1250000  -0.8750000), wk =   0.0078125
        k(  108) = (   0.6250810   0.1250000  -0.8750000), wk =   0.0078125
        k(  109) = (  -0.1249190   0.8750000   0.6250000), wk =   0.0078125
        k(  110) = (   0.1250810   0.8750000  -0.6250000), wk =   0.0078125
        k(  111) = (  -0.1249190  -0.8750000  -0.6250000), wk =   0.0078125
        k(  112) = (   0.1250810  -0.8750000   0.6250000), wk =   0.0078125
        k(  113) = (   0.8750810   0.6250000  -0.1250000), wk =   0.0078125
        k(  114) = (   0.8750810  -0.6250000   0.1250000), wk =   0.0078125
        k(  115) = (  -0.8749190  -0.6250000  -0.1250000), wk =   0.0078125
        k(  116) = (  -0.8749190   0.6250000   0.1250000), wk =   0.0078125
        k(  117) = (   0.1250810  -0.6250000   0.8750000), wk =   0.0078125
        k(  118) = (  -0.1249190   0.6250000   0.8750000), wk =   0.0078125
        k(  119) = (   0.1250810   0.6250000  -0.8750000), wk =   0.0078125
        k(  120) = (  -0.1249190  -0.6250000  -0.8750000), wk =   0.0078125
        k(  121) = (  -0.8749190  -0.1250000  -0.6250000), wk =   0.0078125
        k(  122) = (   0.8750810  -0.1250000   0.6250000), wk =   0.0078125
        k(  123) = (  -0.8749190   0.1250000   0.6250000), wk =   0.0078125
        k(  124) = (   0.8750810   0.1250000  -0.6250000), wk =   0.0078125
        k(  125) = (   0.6250810  -0.8750000   0.1250000), wk =   0.0078125
        k(  126) = (   0.6250810   0.8750000  -0.1250000), wk =   0.0078125
        k(  127) = (  -0.6249190  -0.8750000  -0.1250000), wk =   0.0078125
        k(  128) = (  -0.6249190   0.8750000   0.1250000), wk =   0.0078125
        k(  129) = (  -0.6249190   0.1250000  -0.8750000), wk =   0.0078125
        k(  130) = (   0.6250810  -0.1250000  -0.8750000), wk =   0.0078125
        k(  131) = (   0.6250810   0.1250000   0.8750000), wk =   0.0078125
        k(  132) = (  -0.6249190  -0.1250000   0.8750000), wk =   0.0078125
        k(  133) = (   0.1250810  -0.8750000  -0.6250000), wk =   0.0078125
        k(  134) = (  -0.1249190  -0.8750000   0.6250000), wk =   0.0078125
        k(  135) = (   0.1250810   0.8750000   0.6250000), wk =   0.0078125
        k(  136) = (  -0.1249190   0.8750000  -0.6250000), wk =   0.0078125
        k(  137) = (  -0.8749190  -0.6250000   0.1250000), wk =   0.0078125
        k(  138) = (  -0.8749190   0.6250000  -0.1250000), wk =   0.0078125
        k(  139) = (   0.8750810   0.6250000   0.1250000), wk =   0.0078125
        k(  140) = (   0.8750810  -0.6250000  -0.1250000), wk =   0.0078125
        k(  141) = (  -0.1249190   0.6250000  -0.8750000), wk =   0.0078125
        k(  142) = (   0.1250810  -0.6250000  -0.8750000), wk =   0.0078125
        k(  143) = (  -0.1249190  -0.6250000   0.8750000), wk =   0.0078125
        k(  144) = (   0.1250810   0.6250000   0.8750000), wk =   0.0078125
        k(  145) = (   0.8750810   0.1250000   0.6250000), wk =   0.0078125
        k(  146) = (  -0.8749190   0.1250000  -0.6250000), wk =   0.0078125
        k(  147) = (   0.8750810  -0.1250000  -0.6250000), wk =   0.0078125
        k(  148) = (  -0.8749190  -0.1250000   0.6250000), wk =   0.0078125
        k(  149) = (  -0.6249190   0.8750000  -0.1250000), wk =   0.0078125
        k(  150) = (  -0.6249190  -0.8750000   0.1250000), wk =   0.0078125
        k(  151) = (   0.6250810   0.8750000   0.1250000), wk =   0.0078125
        k(  152) = (   0.6250810  -0.8750000  -0.1250000), wk =   0.0078125
        k(  153) = (  -0.1249190  -0.1250000   0.1250000), wk =   0.0078125
        k(  154) = (  -0.3749190  -0.1250000   0.6250000), wk =   0.0078125
        k(  155) = (  -0.3749190   0.1250000  -0.6250000), wk =   0.0078125
        k(  156) = (   0.3750810  -0.1250000  -0.6250000), wk =   0.0078125
        k(  157) = (   0.1250810   0.6250000   0.3750000), wk =   0.0078125
        k(  158) = (  -0.1249190   0.6250000  -0.3750000), wk =   0.0078125
        k(  159) = (   0.1250810  -0.6250000  -0.3750000), wk =   0.0078125
        k(  160) = (  -0.1249190  -0.6250000   0.3750000), wk =   0.0078125
        k(  161) = (   0.6250810   0.3750000   0.1250000), wk =   0.0078125
        k(  162) = (   0.6250810  -0.3750000  -0.1250000), wk =   0.0078125
        k(  163) = (  -0.6249190  -0.3750000   0.1250000), wk =   0.0078125
        k(  164) = (  -0.6249190   0.3750000  -0.1250000), wk =   0.0078125
        k(  165) = (  -0.1249190  -0.3750000   0.6250000), wk =   0.0078125
        k(  166) = (   0.1250810   0.3750000   0.6250000), wk =   0.0078125
        k(  167) = (  -0.1249190   0.3750000  -0.6250000), wk =   0.0078125
        k(  168) = (   0.1250810  -0.3750000  -0.6250000), wk =   0.0078125
        k(  169) = (  -0.6249190   0.1250000  -0.3750000), wk =   0.0078125
        k(  170) = (   0.6250810   0.1250000   0.3750000), wk =   0.0078125
        k(  171) = (  -0.6249190  -0.1250000   0.3750000), wk =   0.0078125
        k(  172) = (   0.6250810  -0.1250000  -0.3750000), wk =   0.0078125
        k(  173) = (   0.3750810  -0.6250000  -0.1250000), wk =   0.0078125
        k(  174) = (   0.3750810   0.6250000   0.1250000), wk =   0.0078125
        k(  175) = (  -0.3749190  -0.6250000   0.1250000), wk =   0.0078125
        k(  176) = (  -0.3749190   0.6250000  -0.1250000), wk =   0.0078125
        k(  177) = (  -0.3749190  -0.1250000  -0.6250000), wk =   0.0078125
        k(  178) = (   0.3750810   0.1250000  -0.6250000), wk =   0.0078125
        k(  179) = (   0.3750810  -0.1250000   0.6250000), wk =   0.0078125
        k(  180) = (  -0.3749190   0.1250000   0.6250000), wk =   0.0078125
        k(  181) = (  -0.1249190  -0.6250000  -0.3750000), wk =   0.0078125
        k(  182) = (   0.1250810  -0.6250000   0.3750000), wk =   0.0078125
        k(  183) = (  -0.1249190   0.6250000   0.3750000), wk =   0.0078125
        k(  184) = (   0.1250810   0.6250000  -0.3750000), wk =   0.0078125
        k(  185) = (  -0.6249190  -0.3750000  -0.1250000), wk =   0.0078125
        k(  186) = (  -0.6249190   0.3750000   0.1250000), wk =   0.0078125
        k(  187) = (   0.6250810   0.3750000  -0.1250000), wk =   0.0078125
        k(  188) = (   0.6250810  -0.3750000   0.1250000), wk =   0.0078125
        k(  189) = (   0.1250810   0.3750000  -0.6250000), wk =   0.0078125
        k(  190) = (  -0.1249190  -0.3750000  -0.6250000), wk =   0.0078125
        k(  191) = (   0.1250810  -0.3750000   0.6250000), wk =   0.0078125
        k(  192) = (  -0.1249190   0.3750000   0.6250000), wk =   0.0078125
        k(  193) = (   0.6250810  -0.1250000   0.3750000), wk =   0.0078125
        k(  194) = (  -0.6249190  -0.1250000  -0.3750000), wk =   0.0078125
        k(  195) = (   0.6250810   0.1250000  -0.3750000), wk =   0.0078125
        k(  196) = (  -0.6249190   0.1250000   0.3750000), wk =   0.0078125
        k(  197) = (  -0.3749190   0.6250000   0.1250000), wk =   0.0078125
        k(  198) = (  -0.3749190  -0.6250000  -0.1250000), wk =   0.0078125
        k(  199) = (   0.3750810   0.6250000  -0.1250000), wk =   0.0078125
        k(  200) = (   0.3750810  -0.6250000   0.1250000), wk =   0.0078125
        k(  201) = (   0.1250810   0.1250000   0.1250000), wk =   0.0078125
        k(  202) = (   0.1250810   0.8750000   0.1250000), wk =   0.0078125
        k(  203) = (   0.1250810  -0.8750000  -0.1250000), wk =   0.0078125
        k(  204) = (  -0.1249190   0.8750000  -0.1250000), wk =   0.0078125
        k(  205) = (  -0.8749190   0.1250000  -0.1250000), wk =   0.0078125
        k(  206) = (   0.8750810   0.1250000   0.1250000), wk =   0.0078125
        k(  207) = (  -0.8749190  -0.1250000   0.1250000), wk =   0.0078125
        k(  208) = (   0.8750810  -0.1250000  -0.1250000), wk =   0.0078125
        k(  209) = (   0.1250810  -0.1250000  -0.8750000), wk =   0.0078125
        k(  210) = (   0.1250810   0.1250000   0.8750000), wk =   0.0078125
        k(  211) = (  -0.1249190   0.1250000  -0.8750000), wk =   0.0078125
        k(  212) = (  -0.1249190  -0.1250000   0.8750000), wk =   0.0078125
        k(  213) = (   0.1250810   0.8750000  -0.1250000), wk =   0.0078125
        k(  214) = (  -0.1249190  -0.8750000  -0.1250000), wk =   0.0078125
        k(  215) = (  -0.1249190   0.8750000   0.1250000), wk =   0.0078125
        k(  216) = (   0.1250810  -0.8750000   0.1250000), wk =   0.0078125
        k(  217) = (   0.8750810  -0.1250000   0.1250000), wk =   0.0078125
        k(  218) = (  -0.8749190  -0.1250000  -0.1250000), wk =   0.0078125
        k(  219) = (   0.8750810   0.1250000  -0.1250000), wk =   0.0078125
        k(  220) = (  -0.8749190   0.1250000   0.1250000), wk =   0.0078125
        k(  221) = (  -0.1249190   0.1250000   0.8750000), wk =   0.0078125
        k(  222) = (  -0.1249190  -0.1250000  -0.8750000), wk =   0.0078125
        k(  223) = (   0.1250810  -0.1250000   0.8750000), wk =   0.0078125
        k(  224) = (   0.1250810   0.1250000  -0.8750000), wk =   0.0078125
        k(  225) = (   0.1250810  -0.1250000   0.1250000), wk =   0.0078125
        k(  226) = (   0.3750810  -0.3750000   0.3750000), wk =   0.0078125
        k(  227) = (   0.3750810   0.3750000  -0.3750000), wk =   0.0078125
        k(  228) = (  -0.3749190  -0.3750000  -0.3750000), wk =   0.0078125
        k(  229) = (   0.3750810  -0.3750000  -0.3750000), wk =   0.0078125
        k(  230) = (  -0.3749190   0.3750000  -0.3750000), wk =   0.0078125
        k(  231) = (  -0.3749190  -0.3750000   0.3750000), wk =   0.0078125
        k(  232) = (   0.3750810   0.3750000   0.3750000), wk =   0.0078125
        k(  233) = (   0.3750810  -0.3750000  -0.1250000), wk =   0.0078125
        k(  234) = (  -0.3749190   0.3750000   1.1250000), wk =   0.0078125
        k(  235) = (  -0.3749190  -0.3750000  -1.1250000), wk =   0.0078125
        k(  236) = (   0.3750810   0.3750000  -1.1250000), wk =   0.0078125
        k(  237) = (  -0.3749190   1.1250000   0.3750000), wk =   0.0078125
        k(  238) = (   0.3750810   1.1250000  -0.3750000), wk =   0.0078125
        k(  239) = (  -0.3749190  -1.1250000  -0.3750000), wk =   0.0078125
        k(  240) = (   0.3750810  -1.1250000   0.3750000), wk =   0.0078125
        k(  241) = (   1.1250810   0.3750000  -0.3750000), wk =   0.0078125
        k(  242) = (   1.1250810  -0.3750000   0.3750000), wk =   0.0078125
        k(  243) = (  -1.1249190  -0.3750000  -0.3750000), wk =   0.0078125
        k(  244) = (  -1.1249190   0.3750000   0.3750000), wk =   0.0078125
        k(  245) = (  -0.3749190   0.3750000  -1.1250000), wk =   0.0078125
        k(  246) = (   0.3750810  -0.3750000  -1.1250000), wk =   0.0078125
        k(  247) = (   0.3750810   0.3750000   1.1250000), wk =   0.0078125
        k(  248) = (  -0.3749190  -0.3750000   1.1250000), wk =   0.0078125
        k(  249) = (   0.3750810  -1.1250000  -0.3750000), wk =   0.0078125
        k(  250) = (  -0.3749190  -1.1250000   0.3750000), wk =   0.0078125
        k(  251) = (   0.3750810   1.1250000   0.3750000), wk =   0.0078125
        k(  252) = (  -0.3749190   1.1250000  -0.3750000), wk =   0.0078125
        k(  253) = (  -1.1249190  -0.3750000   0.3750000), wk =   0.0078125
        k(  254) = (  -1.1249190   0.3750000  -0.3750000), wk =   0.0078125
        k(  255) = (   1.1250810   0.3750000   0.3750000), wk =   0.0078125
        k(  256) = (   1.1250810  -0.3750000  -0.3750000), wk =   0.0078125

                       cryst. coord.
        k(    1) = (   0.1249595   0.1250000   0.1249595), wk =   0.0078125
        k(    2) = (   0.1249595   0.1250000   0.3749595), wk =   0.0078125
        k(    3) = (   0.1249595   0.1250000  -0.3750405), wk =   0.0078125
        k(    4) = (   0.1249595   0.1250000  -0.1250405), wk =   0.0078125
        k(    5) = (   0.1249595   0.3750000   0.3749595), wk =   0.0078125
        k(    6) = (   0.1249595   0.3750000  -0.3750405), wk =   0.0078125
        k(    7) = (   0.1249595   0.3750000  -0.1250405), wk =   0.0078125
        k(    8) = (   0.1249595  -0.3750000  -0.3750405), wk =   0.0078125
        k(    9) = (   0.3749595   0.3750000   0.3749595), wk =   0.0078125
        k(   10) = (   0.3749595   0.3750000  -0.3750405), wk =   0.0078125
        k(   11) = (  -0.1250405   0.2500000  -0.0000405), wk =   0.0078125
        k(   12) = (   0.2499595  -0.1250000  -0.0000405), wk =   0.0078125
        k(   13) = (  -0.3750405  -0.2500000  -0.2500405), wk =   0.0078125
        k(   14) = (   0.3749595   0.1250000   0.1249595), wk =   0.0078125
        k(   15) = (  -0.0000405   0.2500000  -0.1250405), wk =   0.0078125
        k(   16) = (  -0.0000405  -0.1250000   0.2499595), wk =   0.0078125
        k(   17) = (   0.2499595   0.0000000  -0.1250405), wk =   0.0078125
        k(   18) = (  -0.1250405   0.0000000   0.2499595), wk =   0.0078125
        k(   19) = (   0.1249595   0.3750000   0.1249595), wk =   0.0078125
        k(   20) = (  -0.2500405  -0.3750000  -0.2500405), wk =   0.0078125
        k(   21) = (  -0.1250405  -0.1250000  -0.3750405), wk =   0.0078125
        k(   22) = (   0.2499595   0.2500000   0.3749595), wk =   0.0078125
        k(   23) = (   0.1249595  -0.2500000  -0.0000405), wk =   0.0078125
        k(   24) = (  -0.2500405   0.1250000  -0.0000405), wk =   0.0078125
        k(   25) = (   0.3749595   0.2500000   0.2499595), wk =   0.0078125
        k(   26) = (  -0.3750405  -0.1250000  -0.1250405), wk =   0.0078125
        k(   27) = (  -0.0000405  -0.2500000   0.1249595), wk =   0.0078125
        k(   28) = (  -0.0000405   0.1250000  -0.2500405), wk =   0.0078125
        k(   29) = (  -0.2500405   0.0000000   0.1249595), wk =   0.0078125
        k(   30) = (   0.1249595   0.0000000  -0.2500405), wk =   0.0078125
        k(   31) = (  -0.1250405  -0.3750000  -0.1250405), wk =   0.0078125
        k(   32) = (   0.2499595   0.3750000   0.2499595), wk =   0.0078125
        k(   33) = (  -0.1250405   0.0000000  -0.0000405), wk =   0.0078125
        k(   34) = (   0.4999595   0.5000000   0.3749595), wk =   0.0078125
        k(   35) = (  -0.1250405  -0.5000000  -0.0000405), wk =   0.0078125
        k(   36) = (  -0.5000405  -0.1250000  -0.0000405), wk =   0.0078125
        k(   37) = (   0.3749595   0.5000000   0.4999595), wk =   0.0078125
        k(   38) = (  -0.3750405   0.1250000   0.1249595), wk =   0.0078125
        k(   39) = (  -0.0000405  -0.5000000  -0.1250405), wk =   0.0078125
        k(   40) = (  -0.0000405  -0.1250000  -0.5000405), wk =   0.0078125
        k(   41) = (  -0.5000405   0.0000000  -0.1250405), wk =   0.0078125
        k(   42) = (  -0.1250405   0.0000000  -0.5000405), wk =   0.0078125
        k(   43) = (   0.1249595  -0.3750000   0.1249595), wk =   0.0078125
        k(   44) = (   0.4999595   0.3750000   0.4999595), wk =   0.0078125
        k(   45) = (  -0.1250405  -0.1250000   0.3749595), wk =   0.0078125
        k(   46) = (  -0.5000405  -0.5000000  -0.3750405), wk =   0.0078125
        k(   47) = (   0.1249595   0.5000000  -0.0000405), wk =   0.0078125
        k(   48) = (   0.4999595   0.1250000  -0.0000405), wk =   0.0078125
        k(   49) = (  -0.3750405  -0.5000000  -0.5000405), wk =   0.0078125
        k(   50) = (   0.3749595  -0.1250000  -0.1250405), wk =   0.0078125
        k(   51) = (  -0.0000405   0.5000000   0.1249595), wk =   0.0078125
        k(   52) = (  -0.0000405   0.1250000   0.4999595), wk =   0.0078125
        k(   53) = (   0.4999595   0.0000000   0.1249595), wk =   0.0078125
        k(   54) = (   0.1249595   0.0000000   0.4999595), wk =   0.0078125
        k(   55) = (  -0.1250405   0.3750000  -0.1250405), wk =   0.0078125
        k(   56) = (  -0.5000405  -0.3750000  -0.5000405), wk =   0.0078125
        k(   57) = (  -0.0000405  -0.1250000  -0.0000405), wk =   0.0078125
        k(   58) = (   0.2499595   0.2500000   0.1249595), wk =   0.0078125
        k(   59) = (  -0.1250405  -0.2500000  -0.0000405), wk =   0.0078125
        k(   60) = (  -0.2500405  -0.1250000  -0.0000405), wk =   0.0078125
        k(   61) = (   0.1249595   0.2500000   0.2499595), wk =   0.0078125
        k(   62) = (  -0.1250405   0.1250000   0.1249595), wk =   0.0078125
        k(   63) = (  -0.0000405  -0.2500000  -0.1250405), wk =   0.0078125
        k(   64) = (  -0.0000405  -0.1250000  -0.2500405), wk =   0.0078125
        k(   65) = (  -0.2500405   0.0000000  -0.1250405), wk =   0.0078125
        k(   66) = (  -0.1250405   0.0000000  -0.2500405), wk =   0.0078125
        k(   67) = (   0.1249595  -0.1250000   0.1249595), wk =   0.0078125
        k(   68) = (   0.2499595   0.1250000   0.2499595), wk =   0.0078125
        k(   69) = (  -0.1250405  -0.1250000   0.1249595), wk =   0.0078125
        k(   70) = (  -0.2500405  -0.2500000  -0.1250405), wk =   0.0078125
        k(   71) = (   0.1249595   0.2500000  -0.0000405), wk =   0.0078125
        k(   72) = (   0.2499595   0.1250000  -0.0000405), wk =   0.0078125
        k(   73) = (  -0.1250405  -0.2500000  -0.2500405), wk =   0.0078125
        k(   74) = (   0.1249595  -0.1250000  -0.1250405), wk =   0.0078125
        k(   75) = (  -0.0000405   0.2500000   0.1249595), wk =   0.0078125
        k(   76) = (  -0.0000405   0.1250000   0.2499595), wk =   0.0078125
        k(   77) = (   0.2499595   0.0000000   0.1249595), wk =   0.0078125
        k(   78) = (   0.1249595   0.0000000   0.2499595), wk =   0.0078125
        k(   79) = (  -0.1250405   0.1250000  -0.1250405), wk =   0.0078125
        k(   80) = (  -0.2500405  -0.1250000  -0.2500405), wk =   0.0078125
        k(   81) = (  -0.1250405  -0.1250000  -0.1250405), wk =   0.0078125
        k(   82) = (  -0.0000405  -0.2500000  -0.3750405), wk =   0.0078125
        k(   83) = (  -0.1250405   0.2500000   0.2499595), wk =   0.0078125
        k(   84) = (  -0.0000405  -0.3750000  -0.2500405), wk =   0.0078125
        k(   85) = (  -0.3750405   0.0000000  -0.2500405), wk =   0.0078125
        k(   86) = (   0.3749595   0.1250000   0.3749595), wk =   0.0078125
        k(   87) = (  -0.2500405   0.0000000  -0.3750405), wk =   0.0078125
        k(   88) = (   0.2499595  -0.1250000   0.2499595), wk =   0.0078125
        k(   89) = (   0.2499595   0.2500000  -0.1250405), wk =   0.0078125
        k(   90) = (  -0.3750405  -0.2500000  -0.0000405), wk =   0.0078125
        k(   91) = (   0.3749595   0.3750000   0.1249595), wk =   0.0078125
        k(   92) = (  -0.2500405  -0.3750000  -0.0000405), wk =   0.0078125
        k(   93) = (  -0.1250405  -0.3750000  -0.3750405), wk =   0.0078125
        k(   94) = (  -0.0000405   0.2500000   0.3749595), wk =   0.0078125
        k(   95) = (   0.1249595  -0.2500000  -0.2500405), wk =   0.0078125
        k(   96) = (  -0.0000405   0.3750000   0.2499595), wk =   0.0078125
        k(   97) = (   0.3749595   0.0000000   0.2499595), wk =   0.0078125
        k(   98) = (  -0.3750405  -0.1250000  -0.3750405), wk =   0.0078125
        k(   99) = (   0.2499595   0.0000000   0.3749595), wk =   0.0078125
        k(  100) = (  -0.2500405   0.1250000  -0.2500405), wk =   0.0078125
        k(  101) = (  -0.2500405  -0.2500000   0.1249595), wk =   0.0078125
        k(  102) = (   0.3749595   0.2500000  -0.0000405), wk =   0.0078125
        k(  103) = (  -0.3750405  -0.3750000  -0.1250405), wk =   0.0078125
        k(  104) = (   0.2499595   0.3750000  -0.0000405), wk =   0.0078125
        k(  105) = (  -0.0000405   0.0000000   0.1249595), wk =   0.0078125
        k(  106) = (   0.7499595   0.5000000   0.3749595), wk =   0.0078125
        k(  107) = (  -0.1250405  -0.5000000   0.2499595), wk =   0.0078125
        k(  108) = (  -0.7500405  -0.3750000  -0.2500405), wk =   0.0078125
        k(  109) = (   0.3749595   0.7500000   0.4999595), wk =   0.0078125
        k(  110) = (  -0.3750405   0.1250000   0.3749595), wk =   0.0078125
        k(  111) = (  -0.2500405  -0.7500000  -0.3750405), wk =   0.0078125
        k(  112) = (   0.2499595  -0.1250000  -0.5000405), wk =   0.0078125
        k(  113) = (  -0.5000405   0.2500000  -0.1250405), wk =   0.0078125
        k(  114) = (  -0.3750405  -0.2500000  -0.7500405), wk =   0.0078125
        k(  115) = (   0.3749595  -0.3750000   0.1249595), wk =   0.0078125
        k(  116) = (   0.4999595   0.3750000   0.7499595), wk =   0.0078125
        k(  117) = (   0.3749595   0.1250000  -0.3750405), wk =   0.0078125
        k(  118) = (   0.4999595   0.7500000   0.3749595), wk =   0.0078125
        k(  119) = (  -0.5000405  -0.1250000   0.2499595), wk =   0.0078125
        k(  120) = (  -0.3750405  -0.7500000  -0.2500405), wk =   0.0078125
        k(  121) = (   0.1249595  -0.3750000   0.3749595), wk =   0.0078125
        k(  122) = (  -0.1250405   0.2500000  -0.5000405), wk =   0.0078125
        k(  123) = (   0.7499595   0.3750000   0.4999595), wk =   0.0078125
        k(  124) = (  -0.7500405  -0.2500000  -0.3750405), wk =   0.0078125
        k(  125) = (  -0.2500405  -0.3750000  -0.7500405), wk =   0.0078125
        k(  126) = (  -0.3750405   0.3750000   0.1249595), wk =   0.0078125
        k(  127) = (   0.2499595  -0.5000000  -0.1250405), wk =   0.0078125
        k(  128) = (   0.3749595   0.5000000   0.7499595), wk =   0.0078125
        k(  129) = (  -0.1250405  -0.3750000   0.3749595), wk =   0.0078125
        k(  130) = (  -0.7500405  -0.5000000  -0.3750405), wk =   0.0078125
        k(  131) = (   0.1249595   0.5000000  -0.2500405), wk =   0.0078125
        k(  132) = (   0.7499595   0.3750000   0.2499595), wk =   0.0078125
        k(  133) = (  -0.3750405  -0.7500000  -0.5000405), wk =   0.0078125
        k(  134) = (   0.3749595  -0.1250000  -0.3750405), wk =   0.0078125
        k(  135) = (   0.2499595   0.7500000   0.3749595), wk =   0.0078125
        k(  136) = (  -0.2500405   0.1250000   0.4999595), wk =   0.0078125
        k(  137) = (   0.4999595  -0.2500000   0.1249595), wk =   0.0078125
        k(  138) = (   0.3749595   0.2500000   0.7499595), wk =   0.0078125
        k(  139) = (  -0.3750405   0.3750000  -0.1250405), wk =   0.0078125
        k(  140) = (  -0.5000405  -0.3750000  -0.7500405), wk =   0.0078125
        k(  141) = (  -0.3750405  -0.1250000   0.3749595), wk =   0.0078125
        k(  142) = (  -0.5000405  -0.7500000  -0.3750405), wk =   0.0078125
        k(  143) = (   0.4999595   0.1250000  -0.2500405), wk =   0.0078125
        k(  144) = (   0.3749595   0.7500000   0.2499595), wk =   0.0078125
        k(  145) = (  -0.1250405   0.3750000  -0.3750405), wk =   0.0078125
        k(  146) = (   0.1249595  -0.2500000   0.4999595), wk =   0.0078125
        k(  147) = (  -0.7500405  -0.3750000  -0.5000405), wk =   0.0078125
        k(  148) = (   0.7499595   0.2500000   0.3749595), wk =   0.0078125
        k(  149) = (   0.2499595   0.3750000   0.7499595), wk =   0.0078125
        k(  150) = (   0.3749595  -0.3750000  -0.1250405), wk =   0.0078125
        k(  151) = (  -0.2500405   0.5000000   0.1249595), wk =   0.0078125
        k(  152) = (  -0.3750405  -0.5000000  -0.7500405), wk =   0.0078125
        k(  153) = (   0.1249595   0.0000000  -0.0000405), wk =   0.0078125
        k(  154) = (   0.4999595   0.2500000   0.1249595), wk =   0.0078125
        k(  155) = (  -0.1250405  -0.2500000   0.2499595), wk =   0.0078125
        k(  156) = (  -0.5000405  -0.3750000  -0.2500405), wk =   0.0078125
        k(  157) = (   0.1249595   0.5000000   0.2499595), wk =   0.0078125
        k(  158) = (  -0.1250405   0.1250000   0.3749595), wk =   0.0078125
        k(  159) = (  -0.2500405  -0.5000000  -0.3750405), wk =   0.0078125
        k(  160) = (   0.2499595  -0.1250000  -0.2500405), wk =   0.0078125
        k(  161) = (  -0.2500405   0.2500000  -0.1250405), wk =   0.0078125
        k(  162) = (  -0.3750405  -0.2500000  -0.5000405), wk =   0.0078125
        k(  163) = (   0.3749595  -0.1250000   0.1249595), wk =   0.0078125
        k(  164) = (   0.2499595   0.1250000   0.4999595), wk =   0.0078125
        k(  165) = (   0.3749595   0.1250000  -0.1250405), wk =   0.0078125
        k(  166) = (   0.2499595   0.5000000   0.1249595), wk =   0.0078125
        k(  167) = (  -0.2500405  -0.1250000   0.2499595), wk =   0.0078125
        k(  168) = (  -0.3750405  -0.5000000  -0.2500405), wk =   0.0078125
        k(  169) = (   0.1249595  -0.1250000   0.3749595), wk =   0.0078125
        k(  170) = (  -0.1250405   0.2500000  -0.2500405), wk =   0.0078125
        k(  171) = (   0.4999595   0.1250000   0.2499595), wk =   0.0078125
        k(  172) = (  -0.5000405  -0.2500000  -0.3750405), wk =   0.0078125
        k(  173) = (  -0.2500405  -0.3750000  -0.5000405), wk =   0.0078125
        k(  174) = (  -0.1250405   0.3750000   0.1249595), wk =   0.0078125
        k(  175) = (   0.2499595  -0.2500000  -0.1250405), wk =   0.0078125
        k(  176) = (   0.1249595   0.2500000   0.4999595), wk =   0.0078125
        k(  177) = (  -0.1250405  -0.3750000   0.1249595), wk =   0.0078125
        k(  178) = (  -0.5000405  -0.2500000  -0.1250405), wk =   0.0078125
        k(  179) = (   0.1249595   0.2500000  -0.2500405), wk =   0.0078125
        k(  180) = (   0.4999595   0.3750000   0.2499595), wk =   0.0078125
        k(  181) = (  -0.1250405  -0.5000000  -0.2500405), wk =   0.0078125
        k(  182) = (   0.1249595  -0.1250000  -0.3750405), wk =   0.0078125
        k(  183) = (   0.2499595   0.5000000   0.3749595), wk =   0.0078125
        k(  184) = (  -0.2500405   0.1250000   0.2499595), wk =   0.0078125
        k(  185) = (   0.2499595  -0.2500000   0.1249595), wk =   0.0078125
        k(  186) = (   0.3749595   0.2500000   0.4999595), wk =   0.0078125
        k(  187) = (  -0.3750405   0.1250000  -0.1250405), wk =   0.0078125
        k(  188) = (  -0.2500405  -0.1250000  -0.5000405), wk =   0.0078125
        k(  189) = (  -0.3750405  -0.1250000   0.1249595), wk =   0.0078125
        k(  190) = (  -0.2500405  -0.5000000  -0.1250405), wk =   0.0078125
        k(  191) = (   0.2499595   0.1250000  -0.2500405), wk =   0.0078125
        k(  192) = (   0.3749595   0.5000000   0.2499595), wk =   0.0078125
        k(  193) = (  -0.1250405   0.1250000  -0.3750405), wk =   0.0078125
        k(  194) = (   0.1249595  -0.2500000   0.2499595), wk =   0.0078125
        k(  195) = (  -0.5000405  -0.1250000  -0.2500405), wk =   0.0078125
        k(  196) = (   0.4999595   0.2500000   0.3749595), wk =   0.0078125
        k(  197) = (   0.2499595   0.3750000   0.4999595), wk =   0.0078125
        k(  198) = (   0.1249595  -0.3750000  -0.1250405), wk =   0.0078125
        k(  199) = (  -0.2500405   0.2500000   0.1249595), wk =   0.0078125
        k(  200) = (  -0.1250405  -0.2500000  -0.5000405), wk =   0.0078125
        k(  201) = (  -0.0000405   0.1250000  -0.0000405), wk =   0.0078125
        k(  202) = (  -0.0000405   0.5000000   0.3749595), wk =   0.0078125
        k(  203) = (  -0.1250405  -0.5000000  -0.5000405), wk =   0.0078125
        k(  204) = (  -0.0000405   0.3750000   0.4999595), wk =   0.0078125
        k(  205) = (   0.3749595   0.0000000   0.4999595), wk =   0.0078125
        k(  206) = (  -0.3750405   0.1250000  -0.3750405), wk =   0.0078125
        k(  207) = (   0.4999595   0.0000000   0.3749595), wk =   0.0078125
        k(  208) = (  -0.5000405  -0.1250000  -0.5000405), wk =   0.0078125
        k(  209) = (  -0.5000405  -0.5000000  -0.1250405), wk =   0.0078125
        k(  210) = (   0.3749595   0.5000000  -0.0000405), wk =   0.0078125
        k(  211) = (  -0.3750405  -0.3750000   0.1249595), wk =   0.0078125
        k(  212) = (   0.4999595   0.3750000  -0.0000405), wk =   0.0078125
        k(  213) = (  -0.1250405   0.3750000   0.3749595), wk =   0.0078125
        k(  214) = (  -0.0000405  -0.5000000  -0.3750405), wk =   0.0078125
        k(  215) = (   0.1249595   0.5000000   0.4999595), wk =   0.0078125
        k(  216) = (  -0.0000405  -0.3750000  -0.5000405), wk =   0.0078125
        k(  217) = (  -0.3750405   0.0000000  -0.5000405), wk =   0.0078125
        k(  218) = (   0.3749595  -0.1250000   0.3749595), wk =   0.0078125
        k(  219) = (  -0.5000405   0.0000000  -0.3750405), wk =   0.0078125
        k(  220) = (   0.4999595   0.1250000   0.4999595), wk =   0.0078125
        k(  221) = (   0.4999595   0.5000000   0.1249595), wk =   0.0078125
        k(  222) = (  -0.3750405  -0.5000000  -0.0000405), wk =   0.0078125
        k(  223) = (   0.3749595   0.3750000  -0.1250405), wk =   0.0078125
        k(  224) = (  -0.5000405  -0.3750000  -0.0000405), wk =   0.0078125
        k(  225) = (  -0.0000405   0.0000000  -0.1250405), wk =   0.0078125
        k(  226) = (  -0.0000405   0.0000000  -0.3750405), wk =   0.0078125
        k(  227) = (  -0.3750405   0.0000000  -0.0000405), wk =   0.0078125
        k(  228) = (  -0.0000405  -0.3750000  -0.0000405), wk =   0.0078125
        k(  229) = (  -0.3750405  -0.3750000  -0.3750405), wk =   0.0078125
        k(  230) = (  -0.0000405   0.0000000   0.3749595), wk =   0.0078125
        k(  231) = (   0.3749595   0.0000000  -0.0000405), wk =   0.0078125
        k(  232) = (  -0.0000405   0.3750000  -0.0000405), wk =   0.0078125
        k(  233) = (  -0.2500405  -0.2500000  -0.3750405), wk =   0.0078125
        k(  234) = (   0.7499595   0.7500000   0.3749595), wk =   0.0078125
        k(  235) = (  -0.3750405  -0.7500000  -0.0000405), wk =   0.0078125
        k(  236) = (  -0.7500405  -0.3750000  -0.0000405), wk =   0.0078125
        k(  237) = (   0.3749595   0.7500000   0.7499595), wk =   0.0078125
        k(  238) = (  -0.3750405   0.3750000   0.3749595), wk =   0.0078125
        k(  239) = (  -0.0000405  -0.7500000  -0.3750405), wk =   0.0078125
        k(  240) = (  -0.0000405  -0.3750000  -0.7500405), wk =   0.0078125
        k(  241) = (  -0.7500405   0.0000000  -0.3750405), wk =   0.0078125
        k(  242) = (  -0.3750405   0.0000000  -0.7500405), wk =   0.0078125
        k(  243) = (   0.3749595  -0.3750000   0.3749595), wk =   0.0078125
        k(  244) = (   0.7499595   0.3750000   0.7499595), wk =   0.0078125
        k(  245) = (  -0.3750405  -0.3750000   0.3749595), wk =   0.0078125
        k(  246) = (  -0.7500405  -0.7500000  -0.3750405), wk =   0.0078125
        k(  247) = (   0.3749595   0.7500000  -0.0000405), wk =   0.0078125
        k(  248) = (   0.7499595   0.3750000  -0.0000405), wk =   0.0078125
        k(  249) = (  -0.3750405  -0.7500000  -0.7500405), wk =   0.0078125
        k(  250) = (   0.3749595  -0.3750000  -0.3750405), wk =   0.0078125
        k(  251) = (  -0.0000405   0.7500000   0.3749595), wk =   0.0078125
        k(  252) = (  -0.0000405   0.3750000   0.7499595), wk =   0.0078125
        k(  253) = (   0.7499595   0.0000000   0.3749595), wk =   0.0078125
        k(  254) = (   0.3749595   0.0000000   0.7499595), wk =   0.0078125
        k(  255) = (  -0.3750405   0.3750000  -0.3750405), wk =   0.0078125
        k(  256) = (  -0.7500405  -0.3750000  -0.7500405), wk =   0.0078125

     Dense  grid:     2085 G-vectors     FFT dimensions: (  18,  18,  18)

     Dynamical RAM for                 wfc:       0.13 MB

     Dynamical RAM for     wfc (w. buffer):       0.13 MB

     Dynamical RAM for           str. fact:       0.03 MB

     Dynamical RAM for           local pot:       0.00 MB

     Dynamical RAM for          nlocal pot:       0.03 MB

     Dynamical RAM for                qrad:       0.05 MB

     Dynamical RAM for          rho,v,vnew:       0.23 MB

     Dynamical RAM for           G-vectors:       0.14 MB

     Dynamical RAM for          h,s,v(r/c):       0.19 MB

     Dynamical RAM for          <psi|beta>:       0.00 MB

     Dynamical RAM for                 psi:       0.25 MB

     Dynamical RAM for                hpsi:       0.25 MB

     Dynamical RAM for      wfcinit/wfcrot:       0.28 MB

     Estimated static dynamical RAM per process >       0.89 MB

     Estimated max dynamical RAM per process >       1.59 MB

     The potential is recalculated from file :
     ./Si_shift1_bse_nscf.save/charge-density

     Starting wfcs are    8 randomized atomic wfcs +   24 random wfcs

     Band Structure Calculation
     Davidson diagonalization with overlap

     Computing kpt #:     1  of   256
     total cpu time spent up to now is        0.3 secs

     Computing kpt #:     2  of   256
     total cpu time spent up to now is        0.4 secs

     Computing kpt #:     3  of   256
     total cpu time spent up to now is        0.5 secs

     Computing kpt #:     4  of   256
     total cpu time spent up to now is        0.6 secs

     Computing kpt #:     5  of   256
     total cpu time spent up to now is        0.7 secs

     Computing kpt #:     6  of   256
     total cpu time spent up to now is        0.8 secs

     Computing kpt #:     7  of   256
     total cpu time spent up to now is        0.9 secs

     Computing kpt #:     8  of   256
     total cpu time spent up to now is        1.0 secs

     Computing kpt #:     9  of   256
     total cpu time spent up to now is        1.1 secs

     Computing kpt #:    10  of   256
     total cpu time spent up to now is        1.2 secs

     Computing kpt #:    11  of   256
     total cpu time spent up to now is        1.3 secs

     Computing kpt #:    12  of   256
     total cpu time spent up to now is        1.5 secs

     Computing kpt #:    13  of   256
     total cpu time spent up to now is        1.6 secs

     Computing kpt #:    14  of   256
     total cpu time spent up to now is        1.7 secs

     Computing kpt #:    15  of   256
     total cpu time spent up to now is        1.8 secs

     Computing kpt #:    16  of   256
     total cpu time spent up to now is        1.9 secs

     Computing kpt #:    17  of   256
     total cpu time spent up to now is        2.1 secs

     Computing kpt #:    18  of   256
     total cpu time spent up to now is        2.2 secs

     Computing kpt #:    19  of   256
     total cpu time spent up to now is        2.3 secs

     Computing kpt #:    20  of   256
     total cpu time spent up to now is        2.4 secs

     Computing kpt #:    21  of   256
     total cpu time spent up to now is        2.5 secs

     Computing kpt #:    22  of   256
     total cpu time spent up to now is        2.6 secs

     Computing kpt #:    23  of   256
     total cpu time spent up to now is        2.8 secs

     Computing kpt #:    24  of   256
     total cpu time spent up to now is        2.9 secs

     Computing kpt #:    25  of   256
     total cpu time spent up to now is        3.0 secs

     Computing kpt #:    26  of   256
     total cpu time spent up to now is        3.1 secs

     Computing kpt #:    27  of   256
     total cpu time spent up to now is        3.2 secs

     Computing kpt #:    28  of   256
     total cpu time spent up to now is        3.3 secs

     Computing kpt #:    29  of   256
     total cpu time spent up to now is        3.5 secs

     Computing kpt #:    30  of   256
     total cpu time spent up to now is        3.6 secs

     Computing kpt #:    31  of   256
     total cpu time spent up to now is        3.7 secs

     Computing kpt #:    32  of   256
     total cpu time spent up to now is        3.8 secs

     Computing kpt #:    33  of   256
     total cpu time spent up to now is        3.9 secs

     Computing kpt #:    34  of   256
     total cpu time spent up to now is        4.0 secs

     Computing kpt #:    35  of   256
     total cpu time spent up to now is        4.1 secs

     Computing kpt #:    36  of   256
     total cpu time spent up to now is        4.3 secs

     Computing kpt #:    37  of   256
     total cpu time spent up to now is        4.4 secs

     Computing kpt #:    38  of   256
     total cpu time spent up to now is        4.5 secs

     Computing kpt #:    39  of   256
     total cpu time spent up to now is        4.6 secs

     Computing kpt #:    40  of   256
     total cpu time spent up to now is        4.7 secs

     Computing kpt #:    41  of   256
     total cpu time spent up to now is        4.8 secs

     Computing kpt #:    42  of   256
     total cpu time spent up to now is        4.9 secs

     Computing kpt #:    43  of   256
     total cpu time spent up to now is        5.0 secs

     Computing kpt #:    44  of   256
     total cpu time spent up to now is        5.1 secs

     Computing kpt #:    45  of   256
     total cpu time spent up to now is        5.2 secs

     Computing kpt #:    46  of   256
     total cpu time spent up to now is        5.3 secs

     Computing kpt #:    47  of   256
     total cpu time spent up to now is        5.4 secs

     Computing kpt #:    48  of   256
     total cpu time spent up to now is        5.5 secs

     Computing kpt #:    49  of   256
     total cpu time spent up to now is        5.7 secs

     Computing kpt #:    50  of   256
     total cpu time spent up to now is        5.8 secs

     Computing kpt #:    51  of   256
     total cpu time spent up to now is        5.9 secs

     Computing kpt #:    52  of   256
     total cpu time spent up to now is        6.0 secs

     Computing kpt #:    53  of   256
     total cpu time spent up to now is        6.1 secs

     Computing kpt #:    54  of   256
     total cpu time spent up to now is        6.2 secs

     Computing kpt #:    55  of   256
     total cpu time spent up to now is        6.3 secs

     Computing kpt #:    56  of   256
     total cpu time spent up to now is        6.4 secs

     Computing kpt #:    57  of   256
     total cpu time spent up to now is        6.5 secs

     Computing kpt #:    58  of   256
     total cpu time spent up to now is        6.6 secs

     Computing kpt #:    59  of   256
     total cpu time spent up to now is        6.7 secs

     Computing kpt #:    60  of   256
     total cpu time spent up to now is        6.8 secs

     Computing kpt #:    61  of   256
     total cpu time spent up to now is        7.0 secs

     Computing kpt #:    62  of   256
     total cpu time spent up to now is        7.1 secs

     Computing kpt #:    63  of   256
     total cpu time spent up to now is        7.2 secs

     Computing kpt #:    64  of   256
     total cpu time spent up to now is        7.3 secs

     Computing kpt #:    65  of   256
     total cpu time spent up to now is        7.4 secs

     Computing kpt #:    66  of   256
     total cpu time spent up to now is        7.5 secs

     Computing kpt #:    67  of   256
     total cpu time spent up to now is        7.6 secs

     Computing kpt #:    68  of   256
     total cpu time spent up to now is        7.7 secs

     Computing kpt #:    69  of   256
     total cpu time spent up to now is        7.9 secs

     Computing kpt #:    70  of   256
     total cpu time spent up to now is        8.0 secs

     Computing kpt #:    71  of   256
     total cpu time spent up to now is        8.1 secs

     Computing kpt #:    72  of   256
     total cpu time spent up to now is        8.2 secs

     Computing kpt #:    73  of   256
     total cpu time spent up to now is        8.3 secs

     Computing kpt #:    74  of   256
     total cpu time spent up to now is        8.4 secs

     Computing kpt #:    75  of   256
     total cpu time spent up to now is        8.5 secs

     Computing kpt #:    76  of   256
     total cpu time spent up to now is        8.6 secs

     Computing kpt #:    77  of   256
     total cpu time spent up to now is        8.7 secs

     Computing kpt #:    78  of   256
     total cpu time spent up to now is        8.8 secs

     Computing kpt #:    79  of   256
     total cpu time spent up to now is        8.9 secs

     Computing kpt #:    80  of   256
     total cpu time spent up to now is        9.0 secs

     Computing kpt #:    81  of   256
     total cpu time spent up to now is        9.2 secs

     Computing kpt #:    82  of   256
     total cpu time spent up to now is        9.3 secs

     Computing kpt #:    83  of   256
     total cpu time spent up to now is        9.5 secs

     Computing kpt #:    84  of   256
     total cpu time spent up to now is        9.6 secs

     Computing kpt #:    85  of   256
     total cpu time spent up to now is        9.7 secs

     Computing kpt #:    86  of   256
     total cpu time spent up to now is        9.9 secs

     Computing kpt #:    87  of   256
     total cpu time spent up to now is       10.0 secs

     Computing kpt #:    88  of   256
     total cpu time spent up to now is       10.1 secs

     Computing kpt #:    89  of   256
     total cpu time spent up to now is       10.3 secs

     Computing kpt #:    90  of   256
     total cpu time spent up to now is       10.4 secs

     Computing kpt #:    91  of   256
     total cpu time spent up to now is       10.5 secs

     Computing kpt #:    92  of   256
     total cpu time spent up to now is       10.6 secs

     Computing kpt #:    93  of   256
     total cpu time spent up to now is       10.7 secs

     Computing kpt #:    94  of   256
     total cpu time spent up to now is       10.8 secs

     Computing kpt #:    95  of   256
     total cpu time spent up to now is       11.0 secs

     Computing kpt #:    96  of   256
     total cpu time spent up to now is       11.1 secs

     Computing kpt #:    97  of   256
     total cpu time spent up to now is       11.2 secs

     Computing kpt #:    98  of   256
     total cpu time spent up to now is       11.3 secs

     Computing kpt #:    99  of   256
     total cpu time spent up to now is       11.4 secs

     Computing kpt #:   100  of   256
     total cpu time spent up to now is       11.5 secs

     Computing kpt #:   101  of   256
     total cpu time spent up to now is       11.6 secs

     Computing kpt #:   102  of   256
     total cpu time spent up to now is       11.7 secs

     Computing kpt #:   103  of   256
     total cpu time spent up to now is       11.9 secs

     Computing kpt #:   104  of   256
     total cpu time spent up to now is       12.0 secs

     Computing kpt #:   105  of   256
     total cpu time spent up to now is       12.1 secs

     Computing kpt #:   106  of   256
     total cpu time spent up to now is       12.2 secs

     Computing kpt #:   107  of   256
     total cpu time spent up to now is       12.3 secs

     Computing kpt #:   108  of   256
     total cpu time spent up to now is       12.4 secs

     Computing kpt #:   109  of   256
     total cpu time spent up to now is       12.5 secs

     Computing kpt #:   110  of   256
     total cpu time spent up to now is       12.6 secs

     Computing kpt #:   111  of   256
     total cpu time spent up to now is       12.7 secs

     Computing kpt #:   112  of   256
     total cpu time spent up to now is       12.8 secs

     Computing kpt #:   113  of   256
     total cpu time spent up to now is       12.9 secs

     Computing kpt #:   114  of   256
     total cpu time spent up to now is       13.0 secs

     Computing kpt #:   115  of   256
     total cpu time spent up to now is       13.1 secs

     Computing kpt #:   116  of   256
     total cpu time spent up to now is       13.2 secs

     Computing kpt #:   117  of   256
     total cpu time spent up to now is       13.3 secs

     Computing kpt #:   118  of   256
     total cpu time spent up to now is       13.4 secs

     Computing kpt #:   119  of   256
     total cpu time spent up to now is       13.5 secs

     Computing kpt #:   120  of   256
     total cpu time spent up to now is       13.6 secs

     Computing kpt #:   121  of   256
     total cpu time spent up to now is       13.7 secs

     Computing kpt #:   122  of   256
     total cpu time spent up to now is       13.8 secs

     Computing kpt #:   123  of   256
     total cpu time spent up to now is       13.9 secs

     Computing kpt #:   124  of   256
     total cpu time spent up to now is       14.0 secs

     Computing kpt #:   125  of   256
     total cpu time spent up to now is       14.1 secs

     Computing kpt #:   126  of   256
     total cpu time spent up to now is       14.2 secs

     Computing kpt #:   127  of   256
     total cpu time spent up to now is       14.3 secs

     Computing kpt #:   128  of   256
     total cpu time spent up to now is       14.4 secs

     Computing kpt #:   129  of   256
     total cpu time spent up to now is       14.5 secs

     Computing kpt #:   130  of   256
     total cpu time spent up to now is       14.6 secs

     Computing kpt #:   131  of   256
     total cpu time spent up to now is       14.7 secs

     Computing kpt #:   132  of   256
     total cpu time spent up to now is       14.8 secs

     Computing kpt #:   133  of   256
     total cpu time spent up to now is       14.9 secs

     Computing kpt #:   134  of   256
     total cpu time spent up to now is       15.0 secs

     Computing kpt #:   135  of   256
     total cpu time spent up to now is       15.2 secs

     Computing kpt #:   136  of   256
     total cpu time spent up to now is       15.3 secs

     Computing kpt #:   137  of   256
     total cpu time spent up to now is       15.4 secs

     Computing kpt #:   138  of   256
     total cpu time spent up to now is       15.5 secs

     Computing kpt #:   139  of   256
     total cpu time spent up to now is       15.6 secs

     Computing kpt #:   140  of   256
     total cpu time spent up to now is       15.7 secs

     Computing kpt #:   141  of   256
     total cpu time spent up to now is       15.8 secs

     Computing kpt #:   142  of   256
     total cpu time spent up to now is       15.9 secs

     Computing kpt #:   143  of   256
     total cpu time spent up to now is       16.0 secs

     Computing kpt #:   144  of   256
     total cpu time spent up to now is       16.1 secs

     Computing kpt #:   145  of   256
     total cpu time spent up to now is       16.2 secs

     Computing kpt #:   146  of   256
     total cpu time spent up to now is       16.3 secs

     Computing kpt #:   147  of   256
     total cpu time spent up to now is       16.4 secs

     Computing kpt #:   148  of   256
     total cpu time spent up to now is       16.5 secs

     Computing kpt #:   149  of   256
     total cpu time spent up to now is       16.6 secs

     Computing kpt #:   150  of   256
     total cpu time spent up to now is       16.7 secs

     Computing kpt #:   151  of   256
     total cpu time spent up to now is       16.8 secs

     Computing kpt #:   152  of   256
     total cpu time spent up to now is       16.9 secs

     Computing kpt #:   153  of   256
     total cpu time spent up to now is       17.0 secs

     Computing kpt #:   154  of   256
     total cpu time spent up to now is       17.1 secs

     Computing kpt #:   155  of   256
     total cpu time spent up to now is       17.2 secs

     Computing kpt #:   156  of   256
     total cpu time spent up to now is       17.3 secs

     Computing kpt #:   157  of   256
     total cpu time spent up to now is       17.4 secs

     Computing kpt #:   158  of   256
     total cpu time spent up to now is       17.6 secs

     Computing kpt #:   159  of   256
     total cpu time spent up to now is       17.7 secs

     Computing kpt #:   160  of   256
     total cpu time spent up to now is       17.8 secs

     Computing kpt #:   161  of   256
     total cpu time spent up to now is       17.9 secs

     Computing kpt #:   162  of   256
     total cpu time spent up to now is       18.0 secs

     Computing kpt #:   163  of   256
     total cpu time spent up to now is       18.1 secs

     Computing kpt #:   164  of   256
     total cpu time spent up to now is       18.2 secs

     Computing kpt #:   165  of   256
     total cpu time spent up to now is       18.3 secs

     Computing kpt #:   166  of   256
     total cpu time spent up to now is       18.5 secs

     Computing kpt #:   167  of   256
     total cpu time spent up to now is       18.6 secs

     Computing kpt #:   168  of   256
     total cpu time spent up to now is       18.7 secs

     Computing kpt #:   169  of   256
     total cpu time spent up to now is       18.8 secs

     Computing kpt #:   170  of   256
     total cpu time spent up to now is       18.9 secs

     Computing kpt #:   171  of   256
     total cpu time spent up to now is       19.0 secs

     Computing kpt #:   172  of   256
     total cpu time spent up to now is       19.1 secs

     Computing kpt #:   173  of   256
     total cpu time spent up to now is       19.2 secs

     Computing kpt #:   174  of   256
     total cpu time spent up to now is       19.3 secs

     Computing kpt #:   175  of   256
     total cpu time spent up to now is       19.4 secs

     Computing kpt #:   176  of   256
     total cpu time spent up to now is       19.5 secs

     Computing kpt #:   177  of   256
     total cpu time spent up to now is       19.6 secs

     Computing kpt #:   178  of   256
     total cpu time spent up to now is       19.7 secs

     Computing kpt #:   179  of   256
     total cpu time spent up to now is       19.8 secs

     Computing kpt #:   180  of   256
     total cpu time spent up to now is       20.0 secs

     Computing kpt #:   181  of   256
     total cpu time spent up to now is       20.1 secs

     Computing kpt #:   182  of   256
     total cpu time spent up to now is       20.3 secs

     Computing kpt #:   183  of   256
     total cpu time spent up to now is       20.4 secs

     Computing kpt #:   184  of   256
     total cpu time spent up to now is       20.5 secs

     Computing kpt #:   185  of   256
     total cpu time spent up to now is       20.7 secs

     Computing kpt #:   186  of   256
     total cpu time spent up to now is       20.8 secs

     Computing kpt #:   187  of   256
     total cpu time spent up to now is       20.9 secs

     Computing kpt #:   188  of   256
     total cpu time spent up to now is       21.1 secs

     Computing kpt #:   189  of   256
     total cpu time spent up to now is       21.2 secs

     Computing kpt #:   190  of   256
     total cpu time spent up to now is       21.3 secs

     Computing kpt #:   191  of   256
     total cpu time spent up to now is       21.4 secs

     Computing kpt #:   192  of   256
     total cpu time spent up to now is       21.5 secs

     Computing kpt #:   193  of   256
     total cpu time spent up to now is       21.6 secs

     Computing kpt #:   194  of   256
     total cpu time spent up to now is       21.7 secs

     Computing kpt #:   195  of   256
     total cpu time spent up to now is       21.8 secs

     Computing kpt #:   196  of   256
     total cpu time spent up to now is       21.9 secs

     Computing kpt #:   197  of   256
     total cpu time spent up to now is       22.1 secs

     Computing kpt #:   198  of   256
     total cpu time spent up to now is       22.2 secs

     Computing kpt #:   199  of   256
     total cpu time spent up to now is       22.3 secs

     Computing kpt #:   200  of   256
     total cpu time spent up to now is       22.4 secs

     Computing kpt #:   201  of   256
     total cpu time spent up to now is       22.5 secs

     Computing kpt #:   202  of   256
     total cpu time spent up to now is       22.6 secs

     Computing kpt #:   203  of   256
     total cpu time spent up to now is       22.7 secs

     Computing kpt #:   204  of   256
     total cpu time spent up to now is       22.8 secs

     Computing kpt #:   205  of   256
     total cpu time spent up to now is       22.9 secs

     Computing kpt #:   206  of   256
     total cpu time spent up to now is       23.0 secs

     Computing kpt #:   207  of   256
     total cpu time spent up to now is       23.1 secs

     Computing kpt #:   208  of   256
     total cpu time spent up to now is       23.2 secs

     Computing kpt #:   209  of   256
     total cpu time spent up to now is       23.3 secs

     Computing kpt #:   210  of   256
     total cpu time spent up to now is       23.4 secs

     Computing kpt #:   211  of   256
     total cpu time spent up to now is       23.5 secs

     Computing kpt #:   212  of   256
     total cpu time spent up to now is       23.6 secs

     Computing kpt #:   213  of   256
     total cpu time spent up to now is       23.8 secs

     Computing kpt #:   214  of   256
     total cpu time spent up to now is       23.9 secs

     Computing kpt #:   215  of   256
     total cpu time spent up to now is       24.0 secs

     Computing kpt #:   216  of   256
     total cpu time spent up to now is       24.1 secs

     Computing kpt #:   217  of   256
     total cpu time spent up to now is       24.2 secs

     Computing kpt #:   218  of   256
     total cpu time spent up to now is       24.3 secs

     Computing kpt #:   219  of   256
     total cpu time spent up to now is       24.4 secs

     Computing kpt #:   220  of   256
     total cpu time spent up to now is       24.5 secs

     Computing kpt #:   221  of   256
     total cpu time spent up to now is       24.6 secs

     Computing kpt #:   222  of   256
     total cpu time spent up to now is       24.7 secs

     Computing kpt #:   223  of   256
     total cpu time spent up to now is       24.8 secs

     Computing kpt #:   224  of   256
     total cpu time spent up to now is       24.9 secs

     Computing kpt #:   225  of   256
     total cpu time spent up to now is       25.0 secs

     Computing kpt #:   226  of   256
     total cpu time spent up to now is       25.1 secs

     Computing kpt #:   227  of   256
     total cpu time spent up to now is       25.2 secs

     Computing kpt #:   228  of   256
     total cpu time spent up to now is       25.3 secs

     Computing kpt #:   229  of   256
     total cpu time spent up to now is       25.4 secs

     Computing kpt #:   230  of   256
     total cpu time spent up to now is       25.6 secs

     Computing kpt #:   231  of   256
     total cpu time spent up to now is       25.7 secs

     Computing kpt #:   232  of   256
     total cpu time spent up to now is       25.8 secs

     Computing kpt #:   233  of   256
     total cpu time spent up to now is       25.9 secs

     Computing kpt #:   234  of   256
     total cpu time spent up to now is       26.0 secs

     Computing kpt #:   235  of   256
     total cpu time spent up to now is       26.1 secs

     Computing kpt #:   236  of   256
     total cpu time spent up to now is       26.2 secs

     Computing kpt #:   237  of   256
     total cpu time spent up to now is       26.3 secs

     Computing kpt #:   238  of   256
     total cpu time spent up to now is       26.4 secs

     Computing kpt #:   239  of   256
     total cpu time spent up to now is       26.5 secs

     Computing kpt #:   240  of   256
     total cpu time spent up to now is       26.6 secs

     Computing kpt #:   241  of   256
     total cpu time spent up to now is       26.7 secs

     Computing kpt #:   242  of   256
     total cpu time spent up to now is       26.8 secs

     Computing kpt #:   243  of   256
     total cpu time spent up to now is       27.0 secs

     Computing kpt #:   244  of   256
     total cpu time spent up to now is       27.1 secs

     Computing kpt #:   245  of   256
     total cpu time spent up to now is       27.3 secs

     Computing kpt #:   246  of   256
     total cpu time spent up to now is       27.4 secs

     Computing kpt #:   247  of   256
     total cpu time spent up to now is       27.5 secs

     Computing kpt #:   248  of   256
     total cpu time spent up to now is       27.6 secs

     Computing kpt #:   249  of   256
     total cpu time spent up to now is       27.8 secs

     Computing kpt #:   250  of   256
     total cpu time spent up to now is       27.9 secs

     Computing kpt #:   251  of   256
     total cpu time spent up to now is       28.0 secs

     Computing kpt #:   252  of   256
     total cpu time spent up to now is       28.1 secs

     Computing kpt #:   253  of   256
     total cpu time spent up to now is       28.2 secs

     Computing kpt #:   254  of   256
     total cpu time spent up to now is       28.3 secs

     Computing kpt #:   255  of   256
     total cpu time spent up to now is       28.4 secs

     Computing kpt #:   256  of   256
     total cpu time spent up to now is       28.5 secs

     ethr =  1.25E-12,  avg # of iterations = 31.3

     total cpu time spent up to now is       28.5 secs

     End of band structure calculation

          k =-0.1249 0.1250 0.1250 (   271 PWs)   bands (ev):

    -5.5661   4.7062   6.0125   6.0128   8.8582   9.3235   9.3239  11.1306
    13.7024  13.7030  14.9174  16.9873  18.8244  18.8250  22.8159  27.6858
    27.6867  27.8681  30.5860  30.5861  32.7849  32.7850  33.6013  36.3533
    38.3543  38.3549  39.1466  41.2358  41.2366  41.9513  43.7280  43.7289

     occupation numbers 
     1.0000   1.0000   1.0000   1.0000   0.0000   0.0000   0.0000   0.0000
     0.0000   0.0000   0.0000   0.0000   0.0000   0.0000   0.0000   0.0000
     0.0000   0.0000   0.0000   0.0000   0.0000   0.0000   0.0000   0.0000
     0.0000   0.0000   0.0000   0.0000   0.0000   0.0000   0.0000   0.0000

          k =-0.3749 0.3750-0.1250 (   262 PWs)   bands (ev):

    -4.4932   1.6482   3.9404   5.5178   9.0971  10.0217  10.1917  12.6542
    12.8947  16.1131  16.5500  18.7843  20.4838  21.8454  23.0029  24.5066
    25.3990  28.0888  28.6254  29.5413  32.6712  33.2035  33.6756  36.2113
    36.2939  37.4661  37.8878  38.8546  40.0945  41.1120  41.3821  43.9127

     occupation numbers 
     1.0000   1.0000   1.0000   1.0000   0.0000   0.0000   0.0000   0.0000
     0.0000   0.0000   0.0000   0.0000   0.0000   0.0000   0.0000   0.0000
     0.0000   0.0000   0.0000   0.0000   0.0000   0.0000   0.0000   0.0000
     0.0000   0.0000   0.0000   0.0000   0.0000   0.0000   0.0000   0.0000

          k = 0.3751-0.3750 0.6250 (   259 PWs)   bands (ev):

    -3.2841  -0.5351   3.9903   4.7075   8.5329   9.8577  10.4590  13.7315
    15.3025  17.0201  17.9241  18.1722  18.9266  21.5161  24.7470  26.2406
    26.7726  27.6983  28.6100  28.9344  31.2354  32.3957  33.0794  34.2787
    34.7222  36.0957  36.6188  36.6717  39.2174  40.1376  40.5794  40.7255

     occupation numbers 
     1.0000   1.0000   1.0000   1.0000   0.0000   0.0000   0.0000   0.0000
     0.0000   0.0000   0.0000   0.0000   0.0000   0.0000   0.0000   0.0000
     0.0000   0.0000   0.0000   0.0000   0.0000   0.0000   0.0000   0.0000
     0.0000   0.0000   0.0000   0.0000   0.0000   0.0000   0.0000   0.0000

          k = 0.1251-0.1250 0.3750 (   263 PWs)   bands (ev):

    -5.0137   3.0797   4.9544   5.0476   8.4492  10.1051  10.8437  11.0947
    13.9286  14.6888  16.2578  17.8949  19.5882  20.8729  24.1426  24.5681
    25.6415  28.0884  28.2905  29.5660  32.7257  33.9130  34.9553  36.3547
    38.2214  38.7268  38.7550  39.8426  40.3361  41.1908  42.1183  42.7684

     occupation numbers 
     1.0000   1.0000   1.0000   1.0000   0.0000   0.0000   0.0000   0.0000
     0.0000   0.0000   0.0000   0.0000   0.0000   0.0000   0.0000   0.0000
     0.0000   0.0000   0.0000   0.0000   0.0000   0.0000   0.0000   0.0000
     0.0000   0.0000   0.0000   0.0000   0.0000   0.0000   0.0000   0.0000

          k =-0.1249 0.6250 0.1250 (   257 PWs)   bands (ev):

    -3.9362   1.3787   3.5650   4.0424   7.6219   9.1918  12.4056  12.6800
    16.5380  16.5992  17.9931  19.7682  20.0957  21.3115  22.3560  23.5217
    25.0532  26.3254  28.4607  30.7198  31.6737  33.0360  33.0545  33.8926
    35.5628  35.9741  37.0309  39.6570  40.2988  42.1361  42.6263  43.4960

     occupation numbers 
     1.0000   1.0000   1.0000   1.0000   0.0000   0.0000   0.0000   0.0000
     0.0000   0.0000   0.0000   0.0000   0.0000   0.0000   0.0000   0.0000
     0.0000   0.0000   0.0000   0.0000   0.0000   0.0000   0.0000   0.0000
     0.0000   0.0000   0.0000   0.0000   0.0000   0.0000   0.0000   0.0000

          k = 0.6251-0.1250 0.8750 (   258 PWs)   bands (ev):

    -2.2143  -0.6400   2.1182   3.2570   8.6779  10.5980  11.6609  13.8416
    14.8504  17.5833  18.7144  20.6735  21.8981  22.5314  23.9932  24.7690
    25.3104  25.9809  27.5448  28.3280  29.2894  30.7534  31.4960  34.1908
    34.5189  35.3595  37.2898  37.7096  38.7308  39.1305  40.8664  43.1934

     occupation numbers 
     1.0000   1.0000   1.0000   1.0000   0.0000   0.0000   0.0000   0.0000
     0.0000   0.0000   0.0000   0.0000   0.0000   0.0000   0.0000   0.0000
     0.0000   0.0000   0.0000   0.0000   0.0000   0.0000   0.0000   0.0000
     0.0000   0.0000   0.0000   0.0000   0.0000   0.0000   0.0000   0.0000

          k = 0.3751 0.1250 0.6250 (   259 PWs)   bands (ev):

    -3.4973   0.4321   2.9023   4.3260   9.1942   9.8903  11.3757  12.3330
    15.4729  16.1298  18.3731  19.4301  20.6824  21.5780  23.7512  24.7815
    25.5990  27.5486  28.4422  29.3818  30.7542  32.1692  32.5311  33.7155
    35.3590  36.2454  37.8780  38.0668  38.9548  39.9373  41.1096  42.4610

     occupation numbers 
     1.0000   1.0000   1.0000   1.0000   0.0000   0.0000   0.0000   0.0000
     0.0000   0.0000   0.0000   0.0000   0.0000   0.0000   0.0000   0.0000
     0.0000   0.0000   0.0000   0.0000   0.0000   0.0000   0.0000   0.0000
     0.0000   0.0000   0.0000   0.0000   0.0000   0.0000   0.0000   0.0000

          k =-0.1249-0.8750 0.1250 (   254 PWs)   bands (ev):

    -2.4024  -0.5276   2.7679   3.5553   7.1444   8.2475  14.7148  14.7782
    17.2059  17.3363  18.9153  19.2660  21.3460  21.5833  22.3572  25.1587
    25.2400  25.8693  27.2682  28.8867  29.1007  30.0514  30.6998  32.5697
    36.1183  36.6157  38.4451  39.1620  39.8457  41.1391  42.3532  42.5889

     occupation numbers 
     1.0000   1.0000   1.0000   1.0000   0.0000   0.0000   0.0000   0.0000
     0.0000   0.0000   0.0000   0.0000   0.0000   0.0000   0.0000   0.0000
     0.0000   0.0000   0.0000   0.0000   0.0000   0.0000   0.0000   0.0000
     0.0000   0.0000   0.0000   0.0000   0.0000   0.0000   0.0000   0.0000

          k =-0.3749 0.3750 0.3750 (   256 PWs)   bands (ev):

    -4.0356   0.2837   5.1988   5.1990   8.0508   9.7942   9.7944  14.0876
    15.0656  15.0664  16.0015  20.3310  20.3319  20.3955  23.0753  25.1020
    25.1028  29.2985  30.4162  30.5776  30.5776  33.4965  33.4975  35.0364
    35.0365  35.8772  37.6199  39.3250  39.3262  40.3736  40.3748  40.4305

     occupation numbers 
     1.0000   1.0000   1.0000   1.0000   0.0000   0.0000   0.0000   0.0000
     0.0000   0.0000   0.0000   0.0000   0.0000   0.0000   0.0000   0.0000
     0.0000   0.0000   0.0000   0.0000   0.0000   0.0000   0.0000   0.0000
     0.0000   0.0000   0.0000   0.0000   0.0000   0.0000   0.0000   0.0000

          k = 0.3751-0.3750 1.1250 (   255 PWs)   bands (ev):

    -2.7658  -0.3785   2.2057   4.3745   8.1334  11.8252  11.8714  13.3500
    14.3951  14.4393  18.9145  21.4517  21.5136  22.5408  22.9197  25.0658
    25.9832  26.4528  28.3471  28.7011  31.3615  31.7619  32.4987  32.9520
    34.2041  35.0735  36.0384  36.6876  39.9810  40.9176  41.6466  42.5148

     occupation numbers 
     1.0000   1.0000   1.0000   1.0000   0.0000   0.0000   0.0000   0.0000
     0.0000   0.0000   0.0000   0.0000   0.0000   0.0000   0.0000   0.0000
     0.0000   0.0000   0.0000   0.0000   0.0000   0.0000   0.0000   0.0000
     0.0000   0.0000   0.0000   0.0000   0.0000   0.0000   0.0000   0.0000

          k = 0.3751 0.3750 0.1250 (   262 PWs)   bands (ev):

    -4.4927   1.6473   3.9397   5.5175   9.0971  10.0221  10.1919  12.6545
    12.8948  16.1135  16.5517  18.7847  20.4836  21.8453  23.0035  24.5059
    25.3993  28.0903  28.6247  29.5408  32.6698  33.2031  33.6752  36.2098
    36.2929  37.4661  37.8864  38.8536  40.0955  41.1119  41.3813  43.9116

     occupation numbers 
     1.0000   1.0000   1.0000   1.0000   0.0000   0.0000   0.0000   0.0000
     0.0000   0.0000   0.0000   0.0000   0.0000   0.0000   0.0000   0.0000
     0.0000   0.0000   0.0000   0.0000   0.0000   0.0000   0.0000   0.0000
     0.0000   0.0000   0.0000   0.0000   0.0000   0.0000   0.0000   0.0000

          k =-0.3749-0.3750 0.1250 (   262 PWs)   bands (ev):

    -4.4932   1.6482   3.9404   5.5178   9.0971  10.0217  10.1917  12.6542
    12.8947  16.1131  16.5500  18.7843  20.4838  21.8454  23.0029  24.5066
    25.3990  28.0888  28.6254  29.5413  32.6712  33.2035  33.6756  36.2113
    36.2939  37.4661  37.8878  38.8546  40.0945  41.1120  41.3821  43.9127

     occupation numbers 
     1.0000   1.0000   1.0000   1.0000   0.0000   0.0000   0.0000   0.0000
     0.0000   0.0000   0.0000   0.0000   0.0000   0.0000   0.0000   0.0000
     0.0000   0.0000   0.0000   0.0000   0.0000   0.0000   0.0000   0.0000
     0.0000   0.0000   0.0000   0.0000   0.0000   0.0000   0.0000   0.0000

          k = 0.3751-0.1250-0.3750 (   262 PWs)   bands (ev):

    -4.4927   1.6473   3.9397   5.5175   9.0971  10.0221  10.1919  12.6545
    12.8948  16.1135  16.5517  18.7847  20.4836  21.8453  23.0035  24.5059
    25.3993  28.0903  28.6247  29.5408  32.6698  33.2031  33.6752  36.2098
    36.2929  37.4661  37.8864  38.8536  40.0955  41.1119  41.3813  43.9116

     occupation numbers 
     1.0000   1.0000   1.0000   1.0000   0.0000   0.0000   0.0000   0.0000
     0.0000   0.0000   0.0000   0.0000   0.0000   0.0000   0.0000   0.0000
     0.0000   0.0000   0.0000   0.0000   0.0000   0.0000   0.0000   0.0000
     0.0000   0.0000   0.0000   0.0000   0.0000   0.0000   0.0000   0.0000

          k =-0.3749-0.1250 0.3750 (   262 PWs)   bands (ev):

    -4.4932   1.6482   3.9404   5.5178   9.0971  10.0217  10.1917  12.6542
    12.8947  16.1131  16.5500  18.7843  20.4838  21.8454  23.0029  24.5066
    25.3990  28.0888  28.6254  29.5413  32.6712  33.2035  33.6756  36.2113
    36.2939  37.4661  37.8878  38.8546  40.0945  41.1120  41.3821  43.9127

     occupation numbers 
     1.0000   1.0000   1.0000   1.0000   0.0000   0.0000   0.0000   0.0000
     0.0000   0.0000   0.0000   0.0000   0.0000   0.0000   0.0000   0.0000
     0.0000   0.0000   0.0000   0.0000   0.0000   0.0000   0.0000   0.0000
     0.0000   0.0000   0.0000   0.0000   0.0000   0.0000   0.0000   0.0000

          k = 0.3751 0.1250 0.3750 (   262 PWs)   bands (ev):

    -4.4927   1.6473   3.9397   5.5175   9.0971  10.0221  10.1919  12.6545
    12.8948  16.1135  16.5517  18.7847  20.4836  21.8453  23.0035  24.5059
    25.3993  28.0903  28.6247  29.5408  32.6698  33.2031  33.6752  36.2098
    36.2929  37.4661  37.8864  38.8536  40.0955  41.1119  41.3813  43.9116

     occupation numbers 
     1.0000   1.0000   1.0000   1.0000   0.0000   0.0000   0.0000   0.0000
     0.0000   0.0000   0.0000   0.0000   0.0000   0.0000   0.0000   0.0000
     0.0000   0.0000   0.0000   0.0000   0.0000   0.0000   0.0000   0.0000
     0.0000   0.0000   0.0000   0.0000   0.0000   0.0000   0.0000   0.0000

          k =-0.3749 0.1250-0.3750 (   262 PWs)   bands (ev):

    -4.4932   1.6482   3.9404   5.5178   9.0971  10.0217  10.1917  12.6542
    12.8947  16.1131  16.5500  18.7843  20.4838  21.8454  23.0029  24.5066
    25.3990  28.0888  28.6254  29.5413  32.6712  33.2035  33.6756  36.2113
    36.2939  37.4661  37.8878  38.8546  40.0945  41.1120  41.3821  43.9127

     occupation numbers 
     1.0000   1.0000   1.0000   1.0000   0.0000   0.0000   0.0000   0.0000
     0.0000   0.0000   0.0000   0.0000   0.0000   0.0000   0.0000   0.0000
     0.0000   0.0000   0.0000   0.0000   0.0000   0.0000   0.0000   0.0000
[...]
     0.0000   0.0000   0.0000   0.0000   0.0000   0.0000   0.0000   0.0000
     0.0000   0.0000   0.0000   0.0000   0.0000   0.0000   0.0000   0.0000
     0.0000   0.0000   0.0000   0.0000   0.0000   0.0000   0.0000   0.0000

          k = 0.3751 0.3750 0.3750 (   256 PWs)   bands (ev):

    -4.0352   0.2829   5.1987   5.1989   8.0507   9.7942   9.7944  14.0875
    15.0664  15.0673  16.0024  20.3298  20.3307  20.3956  23.0756  25.1033
    25.1042  29.2997  30.4146  30.5772  30.5773  33.4965  33.4975  35.0353
    35.0353  35.8771  37.6202  39.3247  39.3259  40.3731  40.3743  40.4290

     occupation numbers 
     1.0000   1.0000   1.0000   1.0000   0.0000   0.0000   0.0000   0.0000
     0.0000   0.0000   0.0000   0.0000   0.0000   0.0000   0.0000   0.0000
     0.0000   0.0000   0.0000   0.0000   0.0000   0.0000   0.0000   0.0000
     0.0000   0.0000   0.0000   0.0000   0.0000   0.0000   0.0000   0.0000

          k = 0.3751-0.3750-0.1250 (   262 PWs)   bands (ev):

    -4.4927   1.6473   3.9397   5.5175   9.0971  10.0221  10.1919  12.6545
    12.8948  16.1135  16.5517  18.7847  20.4836  21.8453  23.0035  24.5059
    25.3993  28.0903  28.6247  29.5408  32.6698  33.2031  33.6752  36.2098
    36.2929  37.4661  37.8864  38.8536  40.0955  41.1119  41.3813  43.9116

     occupation numbers 
     1.0000   1.0000   1.0000   1.0000   0.0000   0.0000   0.0000   0.0000
     0.0000   0.0000   0.0000   0.0000   0.0000   0.0000   0.0000   0.0000
     0.0000   0.0000   0.0000   0.0000   0.0000   0.0000   0.0000   0.0000
     0.0000   0.0000   0.0000   0.0000   0.0000   0.0000   0.0000   0.0000

          k =-0.3749 0.3750 1.1250 (   255 PWs)   bands (ev):

    -2.7653  -0.3789   2.2054   4.3741   8.1330  11.8259  11.8722  13.3483
    14.3958  14.4401  18.9153  21.4510  21.5133  22.5424  22.9207  25.0648
    25.9833  26.4520  28.3471  28.6997  31.3614  31.7608  32.4995  32.9503
    34.2050  35.0752  36.0385  36.6860  39.9806  40.9178  41.6460  42.5145

     occupation numbers 
     1.0000   1.0000   1.0000   1.0000   0.0000   0.0000   0.0000   0.0000
     0.0000   0.0000   0.0000   0.0000   0.0000   0.0000   0.0000   0.0000
     0.0000   0.0000   0.0000   0.0000   0.0000   0.0000   0.0000   0.0000
     0.0000   0.0000   0.0000   0.0000   0.0000   0.0000   0.0000   0.0000

          k =-0.3749-0.3750-1.1250 (   255 PWs)   bands (ev):

    -2.7653  -0.3789   2.2054   4.3741   8.1330  11.8259  11.8722  13.3483
    14.3958  14.4401  18.9153  21.4510  21.5133  22.5424  22.9207  25.0648
    25.9833  26.4520  28.3471  28.6997  31.3614  31.7608  32.4995  32.9503
    34.2050  35.0752  36.0385  36.6860  39.9806  40.9178  41.6460  42.5145

     occupation numbers 
     1.0000   1.0000   1.0000   1.0000   0.0000   0.0000   0.0000   0.0000
     0.0000   0.0000   0.0000   0.0000   0.0000   0.0000   0.0000   0.0000
     0.0000   0.0000   0.0000   0.0000   0.0000   0.0000   0.0000   0.0000
     0.0000   0.0000   0.0000   0.0000   0.0000   0.0000   0.0000   0.0000

          k = 0.3751 0.3750-1.1250 (   255 PWs)   bands (ev):

    -2.7658  -0.3785   2.2057   4.3745   8.1334  11.8252  11.8714  13.3500
    14.3951  14.4393  18.9145  21.4517  21.5136  22.5408  22.9197  25.0658
    25.9832  26.4528  28.3471  28.7011  31.3615  31.7619  32.4987  32.9520
    34.2041  35.0735  36.0384  36.6876  39.9810  40.9176  41.6466  42.5148

     occupation numbers 
     1.0000   1.0000   1.0000   1.0000   0.0000   0.0000   0.0000   0.0000
     0.0000   0.0000   0.0000   0.0000   0.0000   0.0000   0.0000   0.0000
     0.0000   0.0000   0.0000   0.0000   0.0000   0.0000   0.0000   0.0000
     0.0000   0.0000   0.0000   0.0000   0.0000   0.0000   0.0000   0.0000

          k =-0.3749 1.1250 0.3750 (   255 PWs)   bands (ev):

    -2.7653  -0.3789   2.2054   4.3741   8.1330  11.8259  11.8722  13.3483
    14.3958  14.4401  18.9153  21.4510  21.5133  22.5424  22.9207  25.0648
    25.9833  26.4520  28.3471  28.6997  31.3614  31.7608  32.4995  32.9503
    34.2050  35.0752  36.0385  36.6860  39.9806  40.9178  41.6460  42.5145

     occupation numbers 
     1.0000   1.0000   1.0000   1.0000   0.0000   0.0000   0.0000   0.0000
     0.0000   0.0000   0.0000   0.0000   0.0000   0.0000   0.0000   0.0000
     0.0000   0.0000   0.0000   0.0000   0.0000   0.0000   0.0000   0.0000
     0.0000   0.0000   0.0000   0.0000   0.0000   0.0000   0.0000   0.0000

          k = 0.3751 1.1250-0.3750 (   255 PWs)   bands (ev):

    -2.7658  -0.3785   2.2057   4.3745   8.1334  11.8252  11.8714  13.3500
    14.3951  14.4393  18.9145  21.4517  21.5136  22.5408  22.9197  25.0658
    25.9832  26.4528  28.3471  28.7011  31.3615  31.7619  32.4987  32.9520
    34.2041  35.0735  36.0384  36.6876  39.9810  40.9176  41.6466  42.5148

     occupation numbers 
     1.0000   1.0000   1.0000   1.0000   0.0000   0.0000   0.0000   0.0000
     0.0000   0.0000   0.0000   0.0000   0.0000   0.0000   0.0000   0.0000
     0.0000   0.0000   0.0000   0.0000   0.0000   0.0000   0.0000   0.0000
     0.0000   0.0000   0.0000   0.0000   0.0000   0.0000   0.0000   0.0000

          k =-0.3749-1.1250-0.3750 (   255 PWs)   bands (ev):

    -2.7653  -0.3789   2.2054   4.3741   8.1330  11.8259  11.8722  13.3483
    14.3958  14.4401  18.9153  21.4510  21.5133  22.5424  22.9207  25.0648
    25.9833  26.4520  28.3471  28.6997  31.3614  31.7608  32.4995  32.9503
    34.2050  35.0752  36.0385  36.6860  39.9806  40.9178  41.6460  42.5145

     occupation numbers 
     1.0000   1.0000   1.0000   1.0000   0.0000   0.0000   0.0000   0.0000
     0.0000   0.0000   0.0000   0.0000   0.0000   0.0000   0.0000   0.0000
     0.0000   0.0000   0.0000   0.0000   0.0000   0.0000   0.0000   0.0000
     0.0000   0.0000   0.0000   0.0000   0.0000   0.0000   0.0000   0.0000

          k = 0.3751-1.1250 0.3750 (   255 PWs)   bands (ev):

    -2.7658  -0.3785   2.2057   4.3745   8.1334  11.8252  11.8714  13.3500
    14.3951  14.4393  18.9145  21.4517  21.5136  22.5408  22.9197  25.0658
    25.9832  26.4528  28.3471  28.7011  31.3615  31.7619  32.4987  32.9520
    34.2041  35.0735  36.0384  36.6876  39.9810  40.9176  41.6466  42.5148

     occupation numbers 
     1.0000   1.0000   1.0000   1.0000   0.0000   0.0000   0.0000   0.0000
     0.0000   0.0000   0.0000   0.0000   0.0000   0.0000   0.0000   0.0000
     0.0000   0.0000   0.0000   0.0000   0.0000   0.0000   0.0000   0.0000
     0.0000   0.0000   0.0000   0.0000   0.0000   0.0000   0.0000   0.0000

          k = 1.1251 0.3750-0.3750 (   255 PWs)   bands (ev):

    -2.7656  -0.3789   2.2060   4.3744   8.1333  11.8249  11.8713  13.3492
    14.3961  14.4404  18.9140  21.4503  21.5130  22.5418  22.9207  25.0663
    25.9841  26.4522  28.3468  28.6997  31.3623  31.7622  32.4994  32.9501
    34.2043  35.0746  36.0385  36.6880  39.9792  40.9174  41.6462  42.5151

     occupation numbers 
     1.0000   1.0000   1.0000   1.0000   0.0000   0.0000   0.0000   0.0000
     0.0000   0.0000   0.0000   0.0000   0.0000   0.0000   0.0000   0.0000
     0.0000   0.0000   0.0000   0.0000   0.0000   0.0000   0.0000   0.0000
     0.0000   0.0000   0.0000   0.0000   0.0000   0.0000   0.0000   0.0000

          k = 1.1251-0.3750 0.3750 (   255 PWs)   bands (ev):

    -2.7656  -0.3789   2.2060   4.3744   8.1333  11.8249  11.8713  13.3492
    14.3961  14.4404  18.9140  21.4503  21.5130  22.5418  22.9207  25.0663
    25.9841  26.4522  28.3468  28.6997  31.3623  31.7622  32.4994  32.9501
    34.2043  35.0746  36.0385  36.6880  39.9792  40.9174  41.6462  42.5151

     occupation numbers 
     1.0000   1.0000   1.0000   1.0000   0.0000   0.0000   0.0000   0.0000
     0.0000   0.0000   0.0000   0.0000   0.0000   0.0000   0.0000   0.0000
     0.0000   0.0000   0.0000   0.0000   0.0000   0.0000   0.0000   0.0000
     0.0000   0.0000   0.0000   0.0000   0.0000   0.0000   0.0000   0.0000

          k =-1.1249-0.3750-0.3750 (   255 PWs)   bands (ev):

    -2.7654  -0.3785   2.2051   4.3742   8.1331  11.8262  11.8723  13.3491
    14.3948  14.4389  18.9159  21.4524  21.5139  22.5415  22.9198  25.0643
    25.9824  26.4525  28.3474  28.7012  31.3606  31.7605  32.4988  32.9522
    34.2048  35.0740  36.0385  36.6856  39.9824  40.9180  41.6464  42.5142

     occupation numbers 
     1.0000   1.0000   1.0000   1.0000   0.0000   0.0000   0.0000   0.0000
     0.0000   0.0000   0.0000   0.0000   0.0000   0.0000   0.0000   0.0000
     0.0000   0.0000   0.0000   0.0000   0.0000   0.0000   0.0000   0.0000
     0.0000   0.0000   0.0000   0.0000   0.0000   0.0000   0.0000   0.0000

          k =-1.1249 0.3750 0.3750 (   255 PWs)   bands (ev):

    -2.7654  -0.3785   2.2051   4.3742   8.1331  11.8262  11.8723  13.3491
    14.3948  14.4389  18.9159  21.4524  21.5139  22.5415  22.9198  25.0643
    25.9824  26.4525  28.3474  28.7012  31.3606  31.7605  32.4988  32.9522
    34.2048  35.0740  36.0385  36.6856  39.9824  40.9180  41.6464  42.5142

     occupation numbers 
     1.0000   1.0000   1.0000   1.0000   0.0000   0.0000   0.0000   0.0000
     0.0000   0.0000   0.0000   0.0000   0.0000   0.0000   0.0000   0.0000
     0.0000   0.0000   0.0000   0.0000   0.0000   0.0000   0.0000   0.0000
     0.0000   0.0000   0.0000   0.0000   0.0000   0.0000   0.0000   0.0000

          k =-0.3749 0.3750-1.1250 (   255 PWs)   bands (ev):

    -2.7653  -0.3789   2.2054   4.3741   8.1330  11.8259  11.8722  13.3483
    14.3958  14.4401  18.9153  21.4510  21.5133  22.5424  22.9207  25.0648
    25.9833  26.4520  28.3471  28.6997  31.3614  31.7608  32.4995  32.9503
    34.2050  35.0752  36.0385  36.6860  39.9806  40.9178  41.6460  42.5145

     occupation numbers 
     1.0000   1.0000   1.0000   1.0000   0.0000   0.0000   0.0000   0.0000
     0.0000   0.0000   0.0000   0.0000   0.0000   0.0000   0.0000   0.0000
     0.0000   0.0000   0.0000   0.0000   0.0000   0.0000   0.0000   0.0000
     0.0000   0.0000   0.0000   0.0000   0.0000   0.0000   0.0000   0.0000

          k = 0.3751-0.3750-1.1250 (   255 PWs)   bands (ev):

    -2.7658  -0.3785   2.2057   4.3745   8.1334  11.8252  11.8714  13.3500
    14.3951  14.4393  18.9145  21.4517  21.5136  22.5408  22.9197  25.0658
    25.9832  26.4528  28.3471  28.7011  31.3615  31.7619  32.4987  32.9520
    34.2041  35.0735  36.0384  36.6876  39.9810  40.9176  41.6466  42.5148

     occupation numbers 
     1.0000   1.0000   1.0000   1.0000   0.0000   0.0000   0.0000   0.0000
     0.0000   0.0000   0.0000   0.0000   0.0000   0.0000   0.0000   0.0000
     0.0000   0.0000   0.0000   0.0000   0.0000   0.0000   0.0000   0.0000
     0.0000   0.0000   0.0000   0.0000   0.0000   0.0000   0.0000   0.0000

          k = 0.3751 0.3750 1.1250 (   255 PWs)   bands (ev):

    -2.7658  -0.3785   2.2057   4.3745   8.1334  11.8252  11.8714  13.3500
    14.3951  14.4393  18.9145  21.4517  21.5136  22.5408  22.9197  25.0658
    25.9832  26.4528  28.3471  28.7011  31.3615  31.7619  32.4987  32.9520
    34.2041  35.0735  36.0384  36.6876  39.9810  40.9176  41.6466  42.5148

     occupation numbers 
     1.0000   1.0000   1.0000   1.0000   0.0000   0.0000   0.0000   0.0000
     0.0000   0.0000   0.0000   0.0000   0.0000   0.0000   0.0000   0.0000
     0.0000   0.0000   0.0000   0.0000   0.0000   0.0000   0.0000   0.0000
     0.0000   0.0000   0.0000   0.0000   0.0000   0.0000   0.0000   0.0000

          k =-0.3749-0.3750 1.1250 (   255 PWs)   bands (ev):

    -2.7653  -0.3789   2.2054   4.3741   8.1330  11.8259  11.8722  13.3483
    14.3958  14.4401  18.9153  21.4510  21.5133  22.5424  22.9207  25.0648
    25.9833  26.4520  28.3471  28.6997  31.3614  31.7608  32.4995  32.9503
    34.2050  35.0752  36.0385  36.6860  39.9806  40.9178  41.6460  42.5145

     occupation numbers 
     1.0000   1.0000   1.0000   1.0000   0.0000   0.0000   0.0000   0.0000
     0.0000   0.0000   0.0000   0.0000   0.0000   0.0000   0.0000   0.0000
     0.0000   0.0000   0.0000   0.0000   0.0000   0.0000   0.0000   0.0000
     0.0000   0.0000   0.0000   0.0000   0.0000   0.0000   0.0000   0.0000

          k = 0.3751-1.1250-0.3750 (   255 PWs)   bands (ev):

    -2.7658  -0.3785   2.2057   4.3745   8.1334  11.8252  11.8714  13.3500
    14.3951  14.4393  18.9145  21.4517  21.5136  22.5408  22.9197  25.0658
    25.9832  26.4528  28.3471  28.7011  31.3615  31.7619  32.4987  32.9520
    34.2041  35.0735  36.0384  36.6876  39.9810  40.9176  41.6466  42.5148

     occupation numbers 
     1.0000   1.0000   1.0000   1.0000   0.0000   0.0000   0.0000   0.0000
     0.0000   0.0000   0.0000   0.0000   0.0000   0.0000   0.0000   0.0000
     0.0000   0.0000   0.0000   0.0000   0.0000   0.0000   0.0000   0.0000
     0.0000   0.0000   0.0000   0.0000   0.0000   0.0000   0.0000   0.0000

          k =-0.3749-1.1250 0.3750 (   255 PWs)   bands (ev):

    -2.7653  -0.3789   2.2054   4.3741   8.1330  11.8259  11.8722  13.3483
    14.3958  14.4401  18.9153  21.4510  21.5133  22.5424  22.9207  25.0648
    25.9833  26.4520  28.3471  28.6997  31.3614  31.7608  32.4995  32.9503
    34.2050  35.0752  36.0385  36.6860  39.9806  40.9178  41.6460  42.5145

     occupation numbers 
     1.0000   1.0000   1.0000   1.0000   0.0000   0.0000   0.0000   0.0000
     0.0000   0.0000   0.0000   0.0000   0.0000   0.0000   0.0000   0.0000
     0.0000   0.0000   0.0000   0.0000   0.0000   0.0000   0.0000   0.0000
     0.0000   0.0000   0.0000   0.0000   0.0000   0.0000   0.0000   0.0000

          k = 0.3751 1.1250 0.3750 (   255 PWs)   bands (ev):

    -2.7658  -0.3785   2.2057   4.3745   8.1334  11.8252  11.8714  13.3500
    14.3951  14.4393  18.9145  21.4517  21.5136  22.5408  22.9197  25.0658
    25.9832  26.4528  28.3471  28.7011  31.3615  31.7619  32.4987  32.9520
    34.2041  35.0735  36.0384  36.6876  39.9810  40.9176  41.6466  42.5148

     occupation numbers 
     1.0000   1.0000   1.0000   1.0000   0.0000   0.0000   0.0000   0.0000
     0.0000   0.0000   0.0000   0.0000   0.0000   0.0000   0.0000   0.0000
     0.0000   0.0000   0.0000   0.0000   0.0000   0.0000   0.0000   0.0000
     0.0000   0.0000   0.0000   0.0000   0.0000   0.0000   0.0000   0.0000

          k =-0.3749 1.1250-0.3750 (   255 PWs)   bands (ev):

    -2.7653  -0.3789   2.2054   4.3741   8.1330  11.8259  11.8722  13.3483
    14.3958  14.4401  18.9153  21.4510  21.5133  22.5424  22.9207  25.0648
    25.9833  26.4520  28.3471  28.6997  31.3614  31.7608  32.4995  32.9503
    34.2050  35.0752  36.0385  36.6860  39.9806  40.9178  41.6460  42.5145

     occupation numbers 
     1.0000   1.0000   1.0000   1.0000   0.0000   0.0000   0.0000   0.0000
     0.0000   0.0000   0.0000   0.0000   0.0000   0.0000   0.0000   0.0000
     0.0000   0.0000   0.0000   0.0000   0.0000   0.0000   0.0000   0.0000
     0.0000   0.0000   0.0000   0.0000   0.0000   0.0000   0.0000   0.0000

          k =-1.1249-0.3750 0.3750 (   255 PWs)   bands (ev):

    -2.7654  -0.3785   2.2051   4.3742   8.1331  11.8262  11.8723  13.3491
    14.3948  14.4389  18.9159  21.4524  21.5139  22.5415  22.9198  25.0643
    25.9824  26.4525  28.3474  28.7012  31.3606  31.7605  32.4988  32.9522
    34.2048  35.0740  36.0385  36.6856  39.9824  40.9180  41.6464  42.5142

     occupation numbers 
     1.0000   1.0000   1.0000   1.0000   0.0000   0.0000   0.0000   0.0000
     0.0000   0.0000   0.0000   0.0000   0.0000   0.0000   0.0000   0.0000
     0.0000   0.0000   0.0000   0.0000   0.0000   0.0000   0.0000   0.0000
     0.0000   0.0000   0.0000   0.0000   0.0000   0.0000   0.0000   0.0000

          k =-1.1249 0.3750-0.3750 (   255 PWs)   bands (ev):

    -2.7654  -0.3785   2.2051   4.3742   8.1331  11.8262  11.8723  13.3491
    14.3948  14.4389  18.9159  21.4524  21.5139  22.5415  22.9198  25.0643
    25.9824  26.4525  28.3474  28.7012  31.3606  31.7605  32.4988  32.9522
    34.2048  35.0740  36.0385  36.6856  39.9824  40.9180  41.6464  42.5142

     occupation numbers 
     1.0000   1.0000   1.0000   1.0000   0.0000   0.0000   0.0000   0.0000
     0.0000   0.0000   0.0000   0.0000   0.0000   0.0000   0.0000   0.0000
     0.0000   0.0000   0.0000   0.0000   0.0000   0.0000   0.0000   0.0000
     0.0000   0.0000   0.0000   0.0000   0.0000   0.0000   0.0000   0.0000

          k = 1.1251 0.3750 0.3750 (   255 PWs)   bands (ev):

    -2.7656  -0.3789   2.2060   4.3744   8.1333  11.8249  11.8713  13.3492
    14.3961  14.4404  18.9140  21.4503  21.5130  22.5418  22.9207  25.0663
    25.9841  26.4522  28.3468  28.6997  31.3623  31.7622  32.4994  32.9501
    34.2043  35.0746  36.0385  36.6880  39.9792  40.9174  41.6462  42.5151

     occupation numbers 
     1.0000   1.0000   1.0000   1.0000   0.0000   0.0000   0.0000   0.0000
     0.0000   0.0000   0.0000   0.0000   0.0000   0.0000   0.0000   0.0000
     0.0000   0.0000   0.0000   0.0000   0.0000   0.0000   0.0000   0.0000
     0.0000   0.0000   0.0000   0.0000   0.0000   0.0000   0.0000   0.0000

          k = 1.1251-0.3750-0.3750 (   255 PWs)   bands (ev):

    -2.7656  -0.3789   2.2060   4.3744   8.1333  11.8249  11.8713  13.3492
    14.3961  14.4404  18.9140  21.4503  21.5130  22.5418  22.9207  25.0663
    25.9841  26.4522  28.3468  28.6997  31.3623  31.7622  32.4994  32.9501
    34.2043  35.0746  36.0385  36.6880  39.9792  40.9174  41.6462  42.5151

     occupation numbers 
     1.0000   1.0000   1.0000   1.0000   0.0000   0.0000   0.0000   0.0000
     0.0000   0.0000   0.0000   0.0000   0.0000   0.0000   0.0000   0.0000
     0.0000   0.0000   0.0000   0.0000   0.0000   0.0000   0.0000   0.0000
     0.0000   0.0000   0.0000   0.0000   0.0000   0.0000   0.0000   0.0000

     highest occupied, lowest unoccupied level (ev):     6.0128    7.1444

     Writing all to output data dir ./Si_shift1_bse_nscf.save/

     init_run     :      0.01s CPU      0.01s WALL (       1 calls)
     electrons    :     27.62s CPU     28.39s WALL (       1 calls)

     Called by init_run:
     wfcinit      :      0.00s CPU      0.00s WALL (       1 calls)
     wfcinit:atom :      0.01s CPU      0.01s WALL (     256 calls)
     wfcinit:wfcr :      0.99s CPU      1.02s WALL (     256 calls)
     potinit      :      0.00s CPU      0.00s WALL (       1 calls)
     hinit0       :      0.01s CPU      0.01s WALL (       1 calls)

     Called by electrons:
     c_bands      :     27.62s CPU     28.38s WALL (       1 calls)
     v_of_rho     :      0.00s CPU      0.00s WALL (       1 calls)
     v_h          :      0.00s CPU      0.00s WALL (       1 calls)
     v_xc         :      0.00s CPU      0.00s WALL (       1 calls)

     Called by c_bands:
     init_us_2    :      0.01s CPU      0.01s WALL (     256 calls)
     init_us_2:cp :      0.01s CPU      0.01s WALL (     256 calls)
     cegterg      :     26.51s CPU     27.23s WALL (     516 calls)

     Called by sum_band:

     Called by *egterg:
     cdiaghg      :      8.02s CPU      8.21s WALL (    8278 calls)
     cegterg:over :      0.94s CPU      0.97s WALL (    8022 calls)
     cegterg:upda :      0.68s CPU      0.71s WALL (    8022 calls)
     cegterg:last :      1.06s CPU      1.09s WALL (    4599 calls)
     h_psi        :     16.45s CPU     16.92s WALL (    8794 calls)
     g_psi        :      0.10s CPU      0.10s WALL (    8022 calls)

     Called by h_psi:
     h_psi:calbec :      0.17s CPU      0.18s WALL (    8794 calls)
     vloc_psi     :     16.07s CPU     16.52s WALL (    8794 calls)
     add_vuspsi   :      0.13s CPU      0.13s WALL (    8794 calls)

     General routines
     calbec       :      0.16s CPU      0.17s WALL (    8794 calls)
     fft          :      0.00s CPU      0.00s WALL (       3 calls)
     fftw         :     14.65s CPU     15.07s WALL (  307572 calls)
     davcio       :      0.02s CPU      0.02s WALL (     512 calls)

     Parallel routines

     PWSCF        :     27.79s CPU     28.58s WALL


   This run was terminated on:   0:42: 5   1Apr2024            

=------------------------------------------------------------------------------=
   JOB DONE.
=------------------------------------------------------------------------------=
