Authorization required, but no authorization protocol specified
Authorization required, but no authorization protocol specified
Authorization required, but no authorization protocol specified

     Program PWSCF v.7.1 starts on  1Apr2024 at  0:47:22 

     This program is part of the open-source Quantum ESPRESSO suite
     for quantum simulation of materials; please cite
         "P. Giannozzi et al., J. Phys.:Condens. Matter 21 395502 (2009);
         "P. Giannozzi et al., J. Phys.:Condens. Matter 29 465901 (2017);
         "P. Giannozzi et al., J. Chem. Phys. 152 154105 (2020);
          URL http://www.quantum-espresso.org", 
     in publications or presentations arising from this work. More details at
     http://www.quantum-espresso.org/quote

     Parallel version (MPI), running on     1 processors

     MPI processes distributed on     1 nodes
     764 MiB available memory on the printing compute node when the environment starts

     Waiting for input...
     Reading input from standard input

     Current dimensions of program PWSCF are:
     Max number of different atomic species (ntypx) = 10
     Max number of k-points (npk) =  40000
     Max angular momentum in pseudopotentials (lmaxx) =  4

     Atomic positions and unit cell read from directory:
     ./Si_shift2_bse_nscf.save/


     Subspace diagonalization in iterative solution of the eigenvalue problem:
     a serial algorithm will be used


     G-vector sticks info
     --------------------
     sticks:   dense  smooth     PW     G-vecs:    dense   smooth      PW
     Sum         211     211     85                 2085     2085     459

     Using Slab Decomposition



     bravais-lattice index     =            2
     lattice parameter (alat)  =      10.1830  a.u.
     unit-cell volume          =     263.9777 (a.u.)^3
     number of atoms/cell      =            2
     number of atomic types    =            1
     number of electrons       =         8.00
     number of Kohn-Sham states=           32
     kinetic-energy cutoff     =      15.0000  Ry
     charge density cutoff     =      60.0000  Ry
     Exchange-correlation=  SLA  PZ   NOGX NOGC
                           (   1   1   0   0   0   0   0)

     celldm(1)=  10.183000  celldm(2)=   0.000000  celldm(3)=   0.000000
     celldm(4)=   0.000000  celldm(5)=   0.000000  celldm(6)=   0.000000

     crystal axes: (cart. coord. in units of alat)
               a(1) = (  -0.500000   0.000000   0.500000 )  
               a(2) = (   0.000000   0.500000   0.500000 )  
               a(3) = (  -0.500000   0.500000   0.000000 )  

     reciprocal axes: (cart. coord. in units 2 pi/alat)
               b(1) = ( -1.000000 -1.000000  1.000000 )  
               b(2) = (  1.000000  1.000000  1.000000 )  
               b(3) = ( -1.000000  1.000000 -1.000000 )  


     PseudoPot. # 1 for Si read from file:
     ./Si.vbc.UPF
     MD5 check sum: 7974b67c806a44bbea7c2da40a3c413a
     Pseudo is Norm-conserving, Zval =  4.0
     Generated by new atomic code, or converted to UPF format
     Using radial grid of  431 points,  2 beta functions with: 
                l(1) =   0
                l(2) =   1

     atomic species   valence    mass     pseudopotential
        Si             4.00    28.08600     Si( 1.00)

     No symmetry found


                                    s                        frac. trans.

      isym =  1     identity                                     

 cryst.   s( 1) = (     1          0          0      )
                  (     0          1          0      )
                  (     0          0          1      )

 cart.    s( 1) = (  1.0000000  0.0000000  0.0000000 )
                  (  0.0000000  1.0000000  0.0000000 )
                  (  0.0000000  0.0000000  1.0000000 )


     point group C_1 (1)    
     there are  1 classes
     the character table:

       E    
A      1.00

     the symmetry operations in each class and the name of the first element:

     E        1
          identity                                               

   Cartesian axes

     site n.     atom                  positions (alat units)
         1           Si  tau(   1) = (   0.0000000   0.0000000   0.0000000  )
         2           Si  tau(   2) = (   0.2500000   0.2500000   0.2500000  )

   Crystallographic axes

     site n.     atom                  positions (cryst. coord.)
         1           Si  tau(   1) = (  0.0000000  0.0000000  0.0000000  )
         2           Si  tau(   2) = ( -0.2500000  0.7500000 -0.2500000  )

     number of k points=   256
                       cart. coord. in units 2pi/alat
        k(    1) = (  -0.1217590   0.1250000   0.1250000), wk =   0.0078125
        k(    2) = (  -0.3717590   0.3750000  -0.1250000), wk =   0.0078125
        k(    3) = (   0.3782410  -0.3750000   0.6250000), wk =   0.0078125
        k(    4) = (   0.1282410  -0.1250000   0.3750000), wk =   0.0078125
        k(    5) = (  -0.1217590   0.6250000   0.1250000), wk =   0.0078125
        k(    6) = (   0.6282410  -0.1250000   0.8750000), wk =   0.0078125
        k(    7) = (   0.3782410   0.1250000   0.6250000), wk =   0.0078125
        k(    8) = (  -0.1217590  -0.8750000   0.1250000), wk =   0.0078125
        k(    9) = (  -0.3717590   0.3750000   0.3750000), wk =   0.0078125
        k(   10) = (   0.3782410  -0.3750000   1.1250000), wk =   0.0078125
        k(   11) = (   0.3782410   0.3750000   0.1250000), wk =   0.0078125
        k(   12) = (  -0.3717590  -0.3750000   0.1250000), wk =   0.0078125
        k(   13) = (   0.3782410  -0.1250000  -0.3750000), wk =   0.0078125
        k(   14) = (  -0.3717590  -0.1250000   0.3750000), wk =   0.0078125
        k(   15) = (   0.3782410   0.1250000   0.3750000), wk =   0.0078125
        k(   16) = (  -0.3717590   0.1250000  -0.3750000), wk =   0.0078125
        k(   17) = (  -0.1217590  -0.3750000   0.3750000), wk =   0.0078125
        k(   18) = (  -0.1217590   0.3750000  -0.3750000), wk =   0.0078125
        k(   19) = (   0.1282410   0.3750000   0.3750000), wk =   0.0078125
        k(   20) = (   0.1282410  -0.3750000  -0.3750000), wk =   0.0078125
        k(   21) = (   0.3782410  -0.3750000   0.1250000), wk =   0.0078125
        k(   22) = (  -0.3717590   0.3750000   0.1250000), wk =   0.0078125
        k(   23) = (  -0.3717590  -0.3750000  -0.1250000), wk =   0.0078125
        k(   24) = (   0.3782410   0.3750000  -0.1250000), wk =   0.0078125
        k(   25) = (  -0.3717590   0.1250000   0.3750000), wk =   0.0078125
        k(   26) = (   0.3782410   0.1250000  -0.3750000), wk =   0.0078125
        k(   27) = (  -0.3717590  -0.1250000  -0.3750000), wk =   0.0078125
        k(   28) = (   0.3782410  -0.1250000   0.3750000), wk =   0.0078125
        k(   29) = (   0.1282410   0.3750000  -0.3750000), wk =   0.0078125
        k(   30) = (   0.1282410  -0.3750000   0.3750000), wk =   0.0078125
        k(   31) = (  -0.1217590  -0.3750000  -0.3750000), wk =   0.0078125
        k(   32) = (  -0.1217590   0.3750000   0.3750000), wk =   0.0078125
        k(   33) = (   0.1282410   0.1250000  -0.1250000), wk =   0.0078125
        k(   34) = (  -0.3717590   0.3750000   0.6250000), wk =   0.0078125
        k(   35) = (  -0.3717590  -0.3750000  -0.6250000), wk =   0.0078125
        k(   36) = (   0.3782410   0.3750000  -0.6250000), wk =   0.0078125
        k(   37) = (  -0.3717590   0.6250000   0.3750000), wk =   0.0078125
        k(   38) = (   0.3782410   0.6250000  -0.3750000), wk =   0.0078125
        k(   39) = (  -0.3717590  -0.6250000  -0.3750000), wk =   0.0078125
        k(   40) = (   0.3782410  -0.6250000   0.3750000), wk =   0.0078125
        k(   41) = (   0.6282410   0.3750000  -0.3750000), wk =   0.0078125
        k(   42) = (   0.6282410  -0.3750000   0.3750000), wk =   0.0078125
        k(   43) = (  -0.6217590  -0.3750000  -0.3750000), wk =   0.0078125
        k(   44) = (  -0.6217590   0.3750000   0.3750000), wk =   0.0078125
        k(   45) = (  -0.3717590   0.3750000  -0.6250000), wk =   0.0078125
        k(   46) = (   0.3782410  -0.3750000  -0.6250000), wk =   0.0078125
        k(   47) = (   0.3782410   0.3750000   0.6250000), wk =   0.0078125
        k(   48) = (  -0.3717590  -0.3750000   0.6250000), wk =   0.0078125
        k(   49) = (   0.3782410  -0.6250000  -0.3750000), wk =   0.0078125
        k(   50) = (  -0.3717590  -0.6250000   0.3750000), wk =   0.0078125
        k(   51) = (   0.3782410   0.6250000   0.3750000), wk =   0.0078125
        k(   52) = (  -0.3717590   0.6250000  -0.3750000), wk =   0.0078125
        k(   53) = (  -0.6217590  -0.3750000   0.3750000), wk =   0.0078125
        k(   54) = (  -0.6217590   0.3750000  -0.3750000), wk =   0.0078125
        k(   55) = (   0.6282410   0.3750000   0.3750000), wk =   0.0078125
        k(   56) = (   0.6282410  -0.3750000  -0.3750000), wk =   0.0078125
        k(   57) = (  -0.1217590  -0.1250000  -0.1250000), wk =   0.0078125
        k(   58) = (  -0.1217590   0.1250000   0.3750000), wk =   0.0078125
        k(   59) = (  -0.1217590  -0.1250000  -0.3750000), wk =   0.0078125
        k(   60) = (   0.1282410   0.1250000  -0.3750000), wk =   0.0078125
        k(   61) = (  -0.1217590   0.3750000   0.1250000), wk =   0.0078125
        k(   62) = (   0.1282410   0.3750000  -0.1250000), wk =   0.0078125
        k(   63) = (  -0.1217590  -0.3750000  -0.1250000), wk =   0.0078125
        k(   64) = (   0.1282410  -0.3750000   0.1250000), wk =   0.0078125
        k(   65) = (   0.3782410   0.1250000  -0.1250000), wk =   0.0078125
        k(   66) = (   0.3782410  -0.1250000   0.1250000), wk =   0.0078125
        k(   67) = (  -0.3717590  -0.1250000  -0.1250000), wk =   0.0078125
        k(   68) = (  -0.3717590   0.1250000   0.1250000), wk =   0.0078125
        k(   69) = (  -0.1217590   0.1250000  -0.3750000), wk =   0.0078125
        k(   70) = (   0.1282410  -0.1250000  -0.3750000), wk =   0.0078125
        k(   71) = (   0.1282410   0.1250000   0.3750000), wk =   0.0078125
        k(   72) = (  -0.1217590  -0.1250000   0.3750000), wk =   0.0078125
        k(   73) = (   0.1282410  -0.3750000  -0.1250000), wk =   0.0078125
        k(   74) = (  -0.1217590  -0.3750000   0.1250000), wk =   0.0078125
        k(   75) = (   0.1282410   0.3750000   0.1250000), wk =   0.0078125
        k(   76) = (  -0.1217590   0.3750000  -0.1250000), wk =   0.0078125
        k(   77) = (  -0.3717590  -0.1250000   0.1250000), wk =   0.0078125
        k(   78) = (  -0.3717590   0.1250000  -0.1250000), wk =   0.0078125
        k(   79) = (   0.3782410   0.1250000   0.1250000), wk =   0.0078125
        k(   80) = (   0.3782410  -0.1250000  -0.1250000), wk =   0.0078125
        k(   81) = (   0.1282410  -0.1250000  -0.1250000), wk =   0.0078125
        k(   82) = (   0.1282410  -0.6250000   0.1250000), wk =   0.0078125
        k(   83) = (   0.1282410   0.6250000  -0.1250000), wk =   0.0078125
        k(   84) = (  -0.1217590  -0.6250000  -0.1250000), wk =   0.0078125
        k(   85) = (   0.6282410   0.1250000  -0.1250000), wk =   0.0078125
        k(   86) = (  -0.6217590   0.1250000   0.1250000), wk =   0.0078125
        k(   87) = (   0.6282410  -0.1250000   0.1250000), wk =   0.0078125
        k(   88) = (  -0.6217590  -0.1250000  -0.1250000), wk =   0.0078125
        k(   89) = (   0.1282410  -0.1250000   0.6250000), wk =   0.0078125
        k(   90) = (   0.1282410   0.1250000  -0.6250000), wk =   0.0078125
        k(   91) = (  -0.1217590   0.1250000   0.6250000), wk =   0.0078125
        k(   92) = (  -0.1217590  -0.1250000  -0.6250000), wk =   0.0078125
        k(   93) = (   0.1282410  -0.6250000  -0.1250000), wk =   0.0078125
        k(   94) = (  -0.1217590   0.6250000  -0.1250000), wk =   0.0078125
        k(   95) = (  -0.1217590  -0.6250000   0.1250000), wk =   0.0078125
        k(   96) = (   0.1282410   0.6250000   0.1250000), wk =   0.0078125
        k(   97) = (  -0.6217590  -0.1250000   0.1250000), wk =   0.0078125
        k(   98) = (   0.6282410  -0.1250000  -0.1250000), wk =   0.0078125
        k(   99) = (  -0.6217590   0.1250000  -0.1250000), wk =   0.0078125
        k(  100) = (   0.6282410   0.1250000   0.1250000), wk =   0.0078125
        k(  101) = (  -0.1217590   0.1250000  -0.6250000), wk =   0.0078125
        k(  102) = (  -0.1217590  -0.1250000   0.6250000), wk =   0.0078125
        k(  103) = (   0.1282410  -0.1250000  -0.6250000), wk =   0.0078125
        k(  104) = (   0.1282410   0.1250000   0.6250000), wk =   0.0078125
        k(  105) = (  -0.1217590   0.1250000  -0.1250000), wk =   0.0078125
        k(  106) = (  -0.6217590   0.1250000   0.8750000), wk =   0.0078125
        k(  107) = (  -0.6217590  -0.1250000  -0.8750000), wk =   0.0078125
        k(  108) = (   0.6282410   0.1250000  -0.8750000), wk =   0.0078125
        k(  109) = (  -0.1217590   0.8750000   0.6250000), wk =   0.0078125
        k(  110) = (   0.1282410   0.8750000  -0.6250000), wk =   0.0078125
        k(  111) = (  -0.1217590  -0.8750000  -0.6250000), wk =   0.0078125
        k(  112) = (   0.1282410  -0.8750000   0.6250000), wk =   0.0078125
        k(  113) = (   0.8782410   0.6250000  -0.1250000), wk =   0.0078125
        k(  114) = (   0.8782410  -0.6250000   0.1250000), wk =   0.0078125
        k(  115) = (  -0.8717590  -0.6250000  -0.1250000), wk =   0.0078125
        k(  116) = (  -0.8717590   0.6250000   0.1250000), wk =   0.0078125
        k(  117) = (   0.1282410  -0.6250000   0.8750000), wk =   0.0078125
        k(  118) = (  -0.1217590   0.6250000   0.8750000), wk =   0.0078125
        k(  119) = (   0.1282410   0.6250000  -0.8750000), wk =   0.0078125
        k(  120) = (  -0.1217590  -0.6250000  -0.8750000), wk =   0.0078125
        k(  121) = (  -0.8717590  -0.1250000  -0.6250000), wk =   0.0078125
        k(  122) = (   0.8782410  -0.1250000   0.6250000), wk =   0.0078125
        k(  123) = (  -0.8717590   0.1250000   0.6250000), wk =   0.0078125
        k(  124) = (   0.8782410   0.1250000  -0.6250000), wk =   0.0078125
        k(  125) = (   0.6282410  -0.8750000   0.1250000), wk =   0.0078125
        k(  126) = (   0.6282410   0.8750000  -0.1250000), wk =   0.0078125
        k(  127) = (  -0.6217590  -0.8750000  -0.1250000), wk =   0.0078125
        k(  128) = (  -0.6217590   0.8750000   0.1250000), wk =   0.0078125
        k(  129) = (  -0.6217590   0.1250000  -0.8750000), wk =   0.0078125
        k(  130) = (   0.6282410  -0.1250000  -0.8750000), wk =   0.0078125
        k(  131) = (   0.6282410   0.1250000   0.8750000), wk =   0.0078125
        k(  132) = (  -0.6217590  -0.1250000   0.8750000), wk =   0.0078125
        k(  133) = (   0.1282410  -0.8750000  -0.6250000), wk =   0.0078125
        k(  134) = (  -0.1217590  -0.8750000   0.6250000), wk =   0.0078125
        k(  135) = (   0.1282410   0.8750000   0.6250000), wk =   0.0078125
        k(  136) = (  -0.1217590   0.8750000  -0.6250000), wk =   0.0078125
        k(  137) = (  -0.8717590  -0.6250000   0.1250000), wk =   0.0078125
        k(  138) = (  -0.8717590   0.6250000  -0.1250000), wk =   0.0078125
        k(  139) = (   0.8782410   0.6250000   0.1250000), wk =   0.0078125
        k(  140) = (   0.8782410  -0.6250000  -0.1250000), wk =   0.0078125
        k(  141) = (  -0.1217590   0.6250000  -0.8750000), wk =   0.0078125
        k(  142) = (   0.1282410  -0.6250000  -0.8750000), wk =   0.0078125
        k(  143) = (  -0.1217590  -0.6250000   0.8750000), wk =   0.0078125
        k(  144) = (   0.1282410   0.6250000   0.8750000), wk =   0.0078125
        k(  145) = (   0.8782410   0.1250000   0.6250000), wk =   0.0078125
        k(  146) = (  -0.8717590   0.1250000  -0.6250000), wk =   0.0078125
        k(  147) = (   0.8782410  -0.1250000  -0.6250000), wk =   0.0078125
        k(  148) = (  -0.8717590  -0.1250000   0.6250000), wk =   0.0078125
        k(  149) = (  -0.6217590   0.8750000  -0.1250000), wk =   0.0078125
        k(  150) = (  -0.6217590  -0.8750000   0.1250000), wk =   0.0078125
        k(  151) = (   0.6282410   0.8750000   0.1250000), wk =   0.0078125
        k(  152) = (   0.6282410  -0.8750000  -0.1250000), wk =   0.0078125
        k(  153) = (  -0.1217590  -0.1250000   0.1250000), wk =   0.0078125
        k(  154) = (  -0.3717590  -0.1250000   0.6250000), wk =   0.0078125
        k(  155) = (  -0.3717590   0.1250000  -0.6250000), wk =   0.0078125
        k(  156) = (   0.3782410  -0.1250000  -0.6250000), wk =   0.0078125
        k(  157) = (   0.1282410   0.6250000   0.3750000), wk =   0.0078125
        k(  158) = (  -0.1217590   0.6250000  -0.3750000), wk =   0.0078125
        k(  159) = (   0.1282410  -0.6250000  -0.3750000), wk =   0.0078125
        k(  160) = (  -0.1217590  -0.6250000   0.3750000), wk =   0.0078125
        k(  161) = (   0.6282410   0.3750000   0.1250000), wk =   0.0078125
        k(  162) = (   0.6282410  -0.3750000  -0.1250000), wk =   0.0078125
        k(  163) = (  -0.6217590  -0.3750000   0.1250000), wk =   0.0078125
        k(  164) = (  -0.6217590   0.3750000  -0.1250000), wk =   0.0078125
        k(  165) = (  -0.1217590  -0.3750000   0.6250000), wk =   0.0078125
        k(  166) = (   0.1282410   0.3750000   0.6250000), wk =   0.0078125
        k(  167) = (  -0.1217590   0.3750000  -0.6250000), wk =   0.0078125
        k(  168) = (   0.1282410  -0.3750000  -0.6250000), wk =   0.0078125
        k(  169) = (  -0.6217590   0.1250000  -0.3750000), wk =   0.0078125
        k(  170) = (   0.6282410   0.1250000   0.3750000), wk =   0.0078125
        k(  171) = (  -0.6217590  -0.1250000   0.3750000), wk =   0.0078125
        k(  172) = (   0.6282410  -0.1250000  -0.3750000), wk =   0.0078125
        k(  173) = (   0.3782410  -0.6250000  -0.1250000), wk =   0.0078125
        k(  174) = (   0.3782410   0.6250000   0.1250000), wk =   0.0078125
        k(  175) = (  -0.3717590  -0.6250000   0.1250000), wk =   0.0078125
        k(  176) = (  -0.3717590   0.6250000  -0.1250000), wk =   0.0078125
        k(  177) = (  -0.3717590  -0.1250000  -0.6250000), wk =   0.0078125
        k(  178) = (   0.3782410   0.1250000  -0.6250000), wk =   0.0078125
        k(  179) = (   0.3782410  -0.1250000   0.6250000), wk =   0.0078125
        k(  180) = (  -0.3717590   0.1250000   0.6250000), wk =   0.0078125
        k(  181) = (  -0.1217590  -0.6250000  -0.3750000), wk =   0.0078125
        k(  182) = (   0.1282410  -0.6250000   0.3750000), wk =   0.0078125
        k(  183) = (  -0.1217590   0.6250000   0.3750000), wk =   0.0078125
        k(  184) = (   0.1282410   0.6250000  -0.3750000), wk =   0.0078125
        k(  185) = (  -0.6217590  -0.3750000  -0.1250000), wk =   0.0078125
        k(  186) = (  -0.6217590   0.3750000   0.1250000), wk =   0.0078125
        k(  187) = (   0.6282410   0.3750000  -0.1250000), wk =   0.0078125
        k(  188) = (   0.6282410  -0.3750000   0.1250000), wk =   0.0078125
        k(  189) = (   0.1282410   0.3750000  -0.6250000), wk =   0.0078125
        k(  190) = (  -0.1217590  -0.3750000  -0.6250000), wk =   0.0078125
        k(  191) = (   0.1282410  -0.3750000   0.6250000), wk =   0.0078125
        k(  192) = (  -0.1217590   0.3750000   0.6250000), wk =   0.0078125
        k(  193) = (   0.6282410  -0.1250000   0.3750000), wk =   0.0078125
        k(  194) = (  -0.6217590  -0.1250000  -0.3750000), wk =   0.0078125
        k(  195) = (   0.6282410   0.1250000  -0.3750000), wk =   0.0078125
        k(  196) = (  -0.6217590   0.1250000   0.3750000), wk =   0.0078125
        k(  197) = (  -0.3717590   0.6250000   0.1250000), wk =   0.0078125
        k(  198) = (  -0.3717590  -0.6250000  -0.1250000), wk =   0.0078125
        k(  199) = (   0.3782410   0.6250000  -0.1250000), wk =   0.0078125
        k(  200) = (   0.3782410  -0.6250000   0.1250000), wk =   0.0078125
        k(  201) = (   0.1282410   0.1250000   0.1250000), wk =   0.0078125
        k(  202) = (   0.1282410   0.8750000   0.1250000), wk =   0.0078125
        k(  203) = (   0.1282410  -0.8750000  -0.1250000), wk =   0.0078125
        k(  204) = (  -0.1217590   0.8750000  -0.1250000), wk =   0.0078125
        k(  205) = (  -0.8717590   0.1250000  -0.1250000), wk =   0.0078125
        k(  206) = (   0.8782410   0.1250000   0.1250000), wk =   0.0078125
        k(  207) = (  -0.8717590  -0.1250000   0.1250000), wk =   0.0078125
        k(  208) = (   0.8782410  -0.1250000  -0.1250000), wk =   0.0078125
        k(  209) = (   0.1282410  -0.1250000  -0.8750000), wk =   0.0078125
        k(  210) = (   0.1282410   0.1250000   0.8750000), wk =   0.0078125
        k(  211) = (  -0.1217590   0.1250000  -0.8750000), wk =   0.0078125
        k(  212) = (  -0.1217590  -0.1250000   0.8750000), wk =   0.0078125
        k(  213) = (   0.1282410   0.8750000  -0.1250000), wk =   0.0078125
        k(  214) = (  -0.1217590  -0.8750000  -0.1250000), wk =   0.0078125
        k(  215) = (  -0.1217590   0.8750000   0.1250000), wk =   0.0078125
        k(  216) = (   0.1282410  -0.8750000   0.1250000), wk =   0.0078125
        k(  217) = (   0.8782410  -0.1250000   0.1250000), wk =   0.0078125
        k(  218) = (  -0.8717590  -0.1250000  -0.1250000), wk =   0.0078125
        k(  219) = (   0.8782410   0.1250000  -0.1250000), wk =   0.0078125
        k(  220) = (  -0.8717590   0.1250000   0.1250000), wk =   0.0078125
        k(  221) = (  -0.1217590   0.1250000   0.8750000), wk =   0.0078125
        k(  222) = (  -0.1217590  -0.1250000  -0.8750000), wk =   0.0078125
        k(  223) = (   0.1282410  -0.1250000   0.8750000), wk =   0.0078125
        k(  224) = (   0.1282410   0.1250000  -0.8750000), wk =   0.0078125
        k(  225) = (   0.1282410  -0.1250000   0.1250000), wk =   0.0078125
        k(  226) = (   0.3782410  -0.3750000   0.3750000), wk =   0.0078125
        k(  227) = (   0.3782410   0.3750000  -0.3750000), wk =   0.0078125
        k(  228) = (  -0.3717590  -0.3750000  -0.3750000), wk =   0.0078125
        k(  229) = (   0.3782410  -0.3750000  -0.3750000), wk =   0.0078125
        k(  230) = (  -0.3717590   0.3750000  -0.3750000), wk =   0.0078125
        k(  231) = (  -0.3717590  -0.3750000   0.3750000), wk =   0.0078125
        k(  232) = (   0.3782410   0.3750000   0.3750000), wk =   0.0078125
        k(  233) = (   0.3782410  -0.3750000  -0.1250000), wk =   0.0078125
        k(  234) = (  -0.3717590   0.3750000   1.1250000), wk =   0.0078125
        k(  235) = (  -0.3717590  -0.3750000  -1.1250000), wk =   0.0078125
        k(  236) = (   0.3782410   0.3750000  -1.1250000), wk =   0.0078125
        k(  237) = (  -0.3717590   1.1250000   0.3750000), wk =   0.0078125
        k(  238) = (   0.3782410   1.1250000  -0.3750000), wk =   0.0078125
        k(  239) = (  -0.3717590  -1.1250000  -0.3750000), wk =   0.0078125
        k(  240) = (   0.3782410  -1.1250000   0.3750000), wk =   0.0078125
        k(  241) = (   1.1282410   0.3750000  -0.3750000), wk =   0.0078125
        k(  242) = (   1.1282410  -0.3750000   0.3750000), wk =   0.0078125
        k(  243) = (  -1.1217590  -0.3750000  -0.3750000), wk =   0.0078125
        k(  244) = (  -1.1217590   0.3750000   0.3750000), wk =   0.0078125
        k(  245) = (  -0.3717590   0.3750000  -1.1250000), wk =   0.0078125
        k(  246) = (   0.3782410  -0.3750000  -1.1250000), wk =   0.0078125
        k(  247) = (   0.3782410   0.3750000   1.1250000), wk =   0.0078125
        k(  248) = (  -0.3717590  -0.3750000   1.1250000), wk =   0.0078125
        k(  249) = (   0.3782410  -1.1250000  -0.3750000), wk =   0.0078125
        k(  250) = (  -0.3717590  -1.1250000   0.3750000), wk =   0.0078125
        k(  251) = (   0.3782410   1.1250000   0.3750000), wk =   0.0078125
        k(  252) = (  -0.3717590   1.1250000  -0.3750000), wk =   0.0078125
        k(  253) = (  -1.1217590  -0.3750000   0.3750000), wk =   0.0078125
        k(  254) = (  -1.1217590   0.3750000  -0.3750000), wk =   0.0078125
        k(  255) = (   1.1282410   0.3750000   0.3750000), wk =   0.0078125
        k(  256) = (   1.1282410  -0.3750000  -0.3750000), wk =   0.0078125

                       cryst. coord.
        k(    1) = (   0.1233795   0.1250000   0.1233795), wk =   0.0078125
        k(    2) = (   0.1233795   0.1250000   0.3733795), wk =   0.0078125
        k(    3) = (   0.1233795   0.1250000  -0.3766205), wk =   0.0078125
        k(    4) = (   0.1233795   0.1250000  -0.1266205), wk =   0.0078125
        k(    5) = (   0.1233795   0.3750000   0.3733795), wk =   0.0078125
        k(    6) = (   0.1233795   0.3750000  -0.3766205), wk =   0.0078125
        k(    7) = (   0.1233795   0.3750000  -0.1266205), wk =   0.0078125
        k(    8) = (   0.1233795  -0.3750000  -0.3766205), wk =   0.0078125
        k(    9) = (   0.3733795   0.3750000   0.3733795), wk =   0.0078125
        k(   10) = (   0.3733795   0.3750000  -0.3766205), wk =   0.0078125
        k(   11) = (  -0.1266205   0.2500000  -0.0016205), wk =   0.0078125
        k(   12) = (   0.2483795  -0.1250000  -0.0016205), wk =   0.0078125
        k(   13) = (  -0.3766205  -0.2500000  -0.2516205), wk =   0.0078125
        k(   14) = (   0.3733795   0.1250000   0.1233795), wk =   0.0078125
        k(   15) = (  -0.0016205   0.2500000  -0.1266205), wk =   0.0078125
        k(   16) = (  -0.0016205  -0.1250000   0.2483795), wk =   0.0078125
        k(   17) = (   0.2483795   0.0000000  -0.1266205), wk =   0.0078125
        k(   18) = (  -0.1266205   0.0000000   0.2483795), wk =   0.0078125
        k(   19) = (   0.1233795   0.3750000   0.1233795), wk =   0.0078125
        k(   20) = (  -0.2516205  -0.3750000  -0.2516205), wk =   0.0078125
        k(   21) = (  -0.1266205  -0.1250000  -0.3766205), wk =   0.0078125
        k(   22) = (   0.2483795   0.2500000   0.3733795), wk =   0.0078125
        k(   23) = (   0.1233795  -0.2500000  -0.0016205), wk =   0.0078125
        k(   24) = (  -0.2516205   0.1250000  -0.0016205), wk =   0.0078125
        k(   25) = (   0.3733795   0.2500000   0.2483795), wk =   0.0078125
        k(   26) = (  -0.3766205  -0.1250000  -0.1266205), wk =   0.0078125
        k(   27) = (  -0.0016205  -0.2500000   0.1233795), wk =   0.0078125
        k(   28) = (  -0.0016205   0.1250000  -0.2516205), wk =   0.0078125
        k(   29) = (  -0.2516205   0.0000000   0.1233795), wk =   0.0078125
        k(   30) = (   0.1233795   0.0000000  -0.2516205), wk =   0.0078125
        k(   31) = (  -0.1266205  -0.3750000  -0.1266205), wk =   0.0078125
        k(   32) = (   0.2483795   0.3750000   0.2483795), wk =   0.0078125
        k(   33) = (  -0.1266205   0.0000000  -0.0016205), wk =   0.0078125
        k(   34) = (   0.4983795   0.5000000   0.3733795), wk =   0.0078125
        k(   35) = (  -0.1266205  -0.5000000  -0.0016205), wk =   0.0078125
        k(   36) = (  -0.5016205  -0.1250000  -0.0016205), wk =   0.0078125
        k(   37) = (   0.3733795   0.5000000   0.4983795), wk =   0.0078125
        k(   38) = (  -0.3766205   0.1250000   0.1233795), wk =   0.0078125
        k(   39) = (  -0.0016205  -0.5000000  -0.1266205), wk =   0.0078125
        k(   40) = (  -0.0016205  -0.1250000  -0.5016205), wk =   0.0078125
        k(   41) = (  -0.5016205   0.0000000  -0.1266205), wk =   0.0078125
        k(   42) = (  -0.1266205   0.0000000  -0.5016205), wk =   0.0078125
        k(   43) = (   0.1233795  -0.3750000   0.1233795), wk =   0.0078125
        k(   44) = (   0.4983795   0.3750000   0.4983795), wk =   0.0078125
        k(   45) = (  -0.1266205  -0.1250000   0.3733795), wk =   0.0078125
        k(   46) = (  -0.5016205  -0.5000000  -0.3766205), wk =   0.0078125
        k(   47) = (   0.1233795   0.5000000  -0.0016205), wk =   0.0078125
        k(   48) = (   0.4983795   0.1250000  -0.0016205), wk =   0.0078125
        k(   49) = (  -0.3766205  -0.5000000  -0.5016205), wk =   0.0078125
        k(   50) = (   0.3733795  -0.1250000  -0.1266205), wk =   0.0078125
        k(   51) = (  -0.0016205   0.5000000   0.1233795), wk =   0.0078125
        k(   52) = (  -0.0016205   0.1250000   0.4983795), wk =   0.0078125
        k(   53) = (   0.4983795   0.0000000   0.1233795), wk =   0.0078125
        k(   54) = (   0.1233795   0.0000000   0.4983795), wk =   0.0078125
        k(   55) = (  -0.1266205   0.3750000  -0.1266205), wk =   0.0078125
        k(   56) = (  -0.5016205  -0.3750000  -0.5016205), wk =   0.0078125
        k(   57) = (  -0.0016205  -0.1250000  -0.0016205), wk =   0.0078125
        k(   58) = (   0.2483795   0.2500000   0.1233795), wk =   0.0078125
        k(   59) = (  -0.1266205  -0.2500000  -0.0016205), wk =   0.0078125
        k(   60) = (  -0.2516205  -0.1250000  -0.0016205), wk =   0.0078125
        k(   61) = (   0.1233795   0.2500000   0.2483795), wk =   0.0078125
        k(   62) = (  -0.1266205   0.1250000   0.1233795), wk =   0.0078125
        k(   63) = (  -0.0016205  -0.2500000  -0.1266205), wk =   0.0078125
        k(   64) = (  -0.0016205  -0.1250000  -0.2516205), wk =   0.0078125
        k(   65) = (  -0.2516205   0.0000000  -0.1266205), wk =   0.0078125
        k(   66) = (  -0.1266205   0.0000000  -0.2516205), wk =   0.0078125
        k(   67) = (   0.1233795  -0.1250000   0.1233795), wk =   0.0078125
        k(   68) = (   0.2483795   0.1250000   0.2483795), wk =   0.0078125
        k(   69) = (  -0.1266205  -0.1250000   0.1233795), wk =   0.0078125
        k(   70) = (  -0.2516205  -0.2500000  -0.1266205), wk =   0.0078125
        k(   71) = (   0.1233795   0.2500000  -0.0016205), wk =   0.0078125
        k(   72) = (   0.2483795   0.1250000  -0.0016205), wk =   0.0078125
        k(   73) = (  -0.1266205  -0.2500000  -0.2516205), wk =   0.0078125
        k(   74) = (   0.1233795  -0.1250000  -0.1266205), wk =   0.0078125
        k(   75) = (  -0.0016205   0.2500000   0.1233795), wk =   0.0078125
        k(   76) = (  -0.0016205   0.1250000   0.2483795), wk =   0.0078125
        k(   77) = (   0.2483795   0.0000000   0.1233795), wk =   0.0078125
        k(   78) = (   0.1233795   0.0000000   0.2483795), wk =   0.0078125
        k(   79) = (  -0.1266205   0.1250000  -0.1266205), wk =   0.0078125
        k(   80) = (  -0.2516205  -0.1250000  -0.2516205), wk =   0.0078125
        k(   81) = (  -0.1266205  -0.1250000  -0.1266205), wk =   0.0078125
        k(   82) = (  -0.0016205  -0.2500000  -0.3766205), wk =   0.0078125
        k(   83) = (  -0.1266205   0.2500000   0.2483795), wk =   0.0078125
        k(   84) = (  -0.0016205  -0.3750000  -0.2516205), wk =   0.0078125
        k(   85) = (  -0.3766205   0.0000000  -0.2516205), wk =   0.0078125
        k(   86) = (   0.3733795   0.1250000   0.3733795), wk =   0.0078125
        k(   87) = (  -0.2516205   0.0000000  -0.3766205), wk =   0.0078125
        k(   88) = (   0.2483795  -0.1250000   0.2483795), wk =   0.0078125
        k(   89) = (   0.2483795   0.2500000  -0.1266205), wk =   0.0078125
        k(   90) = (  -0.3766205  -0.2500000  -0.0016205), wk =   0.0078125
        k(   91) = (   0.3733795   0.3750000   0.1233795), wk =   0.0078125
        k(   92) = (  -0.2516205  -0.3750000  -0.0016205), wk =   0.0078125
        k(   93) = (  -0.1266205  -0.3750000  -0.3766205), wk =   0.0078125
        k(   94) = (  -0.0016205   0.2500000   0.3733795), wk =   0.0078125
        k(   95) = (   0.1233795  -0.2500000  -0.2516205), wk =   0.0078125
        k(   96) = (  -0.0016205   0.3750000   0.2483795), wk =   0.0078125
        k(   97) = (   0.3733795   0.0000000   0.2483795), wk =   0.0078125
        k(   98) = (  -0.3766205  -0.1250000  -0.3766205), wk =   0.0078125
        k(   99) = (   0.2483795   0.0000000   0.3733795), wk =   0.0078125
        k(  100) = (  -0.2516205   0.1250000  -0.2516205), wk =   0.0078125
        k(  101) = (  -0.2516205  -0.2500000   0.1233795), wk =   0.0078125
        k(  102) = (   0.3733795   0.2500000  -0.0016205), wk =   0.0078125
        k(  103) = (  -0.3766205  -0.3750000  -0.1266205), wk =   0.0078125
        k(  104) = (   0.2483795   0.3750000  -0.0016205), wk =   0.0078125
        k(  105) = (  -0.0016205   0.0000000   0.1233795), wk =   0.0078125
        k(  106) = (   0.7483795   0.5000000   0.3733795), wk =   0.0078125
        k(  107) = (  -0.1266205  -0.5000000   0.2483795), wk =   0.0078125
        k(  108) = (  -0.7516205  -0.3750000  -0.2516205), wk =   0.0078125
        k(  109) = (   0.3733795   0.7500000   0.4983795), wk =   0.0078125
        k(  110) = (  -0.3766205   0.1250000   0.3733795), wk =   0.0078125
        k(  111) = (  -0.2516205  -0.7500000  -0.3766205), wk =   0.0078125
        k(  112) = (   0.2483795  -0.1250000  -0.5016205), wk =   0.0078125
        k(  113) = (  -0.5016205   0.2500000  -0.1266205), wk =   0.0078125
        k(  114) = (  -0.3766205  -0.2500000  -0.7516205), wk =   0.0078125
        k(  115) = (   0.3733795  -0.3750000   0.1233795), wk =   0.0078125
        k(  116) = (   0.4983795   0.3750000   0.7483795), wk =   0.0078125
        k(  117) = (   0.3733795   0.1250000  -0.3766205), wk =   0.0078125
        k(  118) = (   0.4983795   0.7500000   0.3733795), wk =   0.0078125
        k(  119) = (  -0.5016205  -0.1250000   0.2483795), wk =   0.0078125
        k(  120) = (  -0.3766205  -0.7500000  -0.2516205), wk =   0.0078125
        k(  121) = (   0.1233795  -0.3750000   0.3733795), wk =   0.0078125
        k(  122) = (  -0.1266205   0.2500000  -0.5016205), wk =   0.0078125
        k(  123) = (   0.7483795   0.3750000   0.4983795), wk =   0.0078125
        k(  124) = (  -0.7516205  -0.2500000  -0.3766205), wk =   0.0078125
        k(  125) = (  -0.2516205  -0.3750000  -0.7516205), wk =   0.0078125
        k(  126) = (  -0.3766205   0.3750000   0.1233795), wk =   0.0078125
        k(  127) = (   0.2483795  -0.5000000  -0.1266205), wk =   0.0078125
        k(  128) = (   0.3733795   0.5000000   0.7483795), wk =   0.0078125
        k(  129) = (  -0.1266205  -0.3750000   0.3733795), wk =   0.0078125
        k(  130) = (  -0.7516205  -0.5000000  -0.3766205), wk =   0.0078125
        k(  131) = (   0.1233795   0.5000000  -0.2516205), wk =   0.0078125
        k(  132) = (   0.7483795   0.3750000   0.2483795), wk =   0.0078125
        k(  133) = (  -0.3766205  -0.7500000  -0.5016205), wk =   0.0078125
        k(  134) = (   0.3733795  -0.1250000  -0.3766205), wk =   0.0078125
        k(  135) = (   0.2483795   0.7500000   0.3733795), wk =   0.0078125
        k(  136) = (  -0.2516205   0.1250000   0.4983795), wk =   0.0078125
        k(  137) = (   0.4983795  -0.2500000   0.1233795), wk =   0.0078125
        k(  138) = (   0.3733795   0.2500000   0.7483795), wk =   0.0078125
        k(  139) = (  -0.3766205   0.3750000  -0.1266205), wk =   0.0078125
        k(  140) = (  -0.5016205  -0.3750000  -0.7516205), wk =   0.0078125
        k(  141) = (  -0.3766205  -0.1250000   0.3733795), wk =   0.0078125
        k(  142) = (  -0.5016205  -0.7500000  -0.3766205), wk =   0.0078125
        k(  143) = (   0.4983795   0.1250000  -0.2516205), wk =   0.0078125
        k(  144) = (   0.3733795   0.7500000   0.2483795), wk =   0.0078125
        k(  145) = (  -0.1266205   0.3750000  -0.3766205), wk =   0.0078125
        k(  146) = (   0.1233795  -0.2500000   0.4983795), wk =   0.0078125
        k(  147) = (  -0.7516205  -0.3750000  -0.5016205), wk =   0.0078125
        k(  148) = (   0.7483795   0.2500000   0.3733795), wk =   0.0078125
        k(  149) = (   0.2483795   0.3750000   0.7483795), wk =   0.0078125
        k(  150) = (   0.3733795  -0.3750000  -0.1266205), wk =   0.0078125
        k(  151) = (  -0.2516205   0.5000000   0.1233795), wk =   0.0078125
        k(  152) = (  -0.3766205  -0.5000000  -0.7516205), wk =   0.0078125
        k(  153) = (   0.1233795   0.0000000  -0.0016205), wk =   0.0078125
        k(  154) = (   0.4983795   0.2500000   0.1233795), wk =   0.0078125
        k(  155) = (  -0.1266205  -0.2500000   0.2483795), wk =   0.0078125
        k(  156) = (  -0.5016205  -0.3750000  -0.2516205), wk =   0.0078125
        k(  157) = (   0.1233795   0.5000000   0.2483795), wk =   0.0078125
        k(  158) = (  -0.1266205   0.1250000   0.3733795), wk =   0.0078125
        k(  159) = (  -0.2516205  -0.5000000  -0.3766205), wk =   0.0078125
        k(  160) = (   0.2483795  -0.1250000  -0.2516205), wk =   0.0078125
        k(  161) = (  -0.2516205   0.2500000  -0.1266205), wk =   0.0078125
        k(  162) = (  -0.3766205  -0.2500000  -0.5016205), wk =   0.0078125
        k(  163) = (   0.3733795  -0.1250000   0.1233795), wk =   0.0078125
        k(  164) = (   0.2483795   0.1250000   0.4983795), wk =   0.0078125
        k(  165) = (   0.3733795   0.1250000  -0.1266205), wk =   0.0078125
        k(  166) = (   0.2483795   0.5000000   0.1233795), wk =   0.0078125
        k(  167) = (  -0.2516205  -0.1250000   0.2483795), wk =   0.0078125
        k(  168) = (  -0.3766205  -0.5000000  -0.2516205), wk =   0.0078125
        k(  169) = (   0.1233795  -0.1250000   0.3733795), wk =   0.0078125
        k(  170) = (  -0.1266205   0.2500000  -0.2516205), wk =   0.0078125
        k(  171) = (   0.4983795   0.1250000   0.2483795), wk =   0.0078125
        k(  172) = (  -0.5016205  -0.2500000  -0.3766205), wk =   0.0078125
        k(  173) = (  -0.2516205  -0.3750000  -0.5016205), wk =   0.0078125
        k(  174) = (  -0.1266205   0.3750000   0.1233795), wk =   0.0078125
        k(  175) = (   0.2483795  -0.2500000  -0.1266205), wk =   0.0078125
        k(  176) = (   0.1233795   0.2500000   0.4983795), wk =   0.0078125
        k(  177) = (  -0.1266205  -0.3750000   0.1233795), wk =   0.0078125
        k(  178) = (  -0.5016205  -0.2500000  -0.1266205), wk =   0.0078125
        k(  179) = (   0.1233795   0.2500000  -0.2516205), wk =   0.0078125
        k(  180) = (   0.4983795   0.3750000   0.2483795), wk =   0.0078125
        k(  181) = (  -0.1266205  -0.5000000  -0.2516205), wk =   0.0078125
        k(  182) = (   0.1233795  -0.1250000  -0.3766205), wk =   0.0078125
        k(  183) = (   0.2483795   0.5000000   0.3733795), wk =   0.0078125
        k(  184) = (  -0.2516205   0.1250000   0.2483795), wk =   0.0078125
        k(  185) = (   0.2483795  -0.2500000   0.1233795), wk =   0.0078125
        k(  186) = (   0.3733795   0.2500000   0.4983795), wk =   0.0078125
        k(  187) = (  -0.3766205   0.1250000  -0.1266205), wk =   0.0078125
        k(  188) = (  -0.2516205  -0.1250000  -0.5016205), wk =   0.0078125
        k(  189) = (  -0.3766205  -0.1250000   0.1233795), wk =   0.0078125
        k(  190) = (  -0.2516205  -0.5000000  -0.1266205), wk =   0.0078125
        k(  191) = (   0.2483795   0.1250000  -0.2516205), wk =   0.0078125
        k(  192) = (   0.3733795   0.5000000   0.2483795), wk =   0.0078125
        k(  193) = (  -0.1266205   0.1250000  -0.3766205), wk =   0.0078125
        k(  194) = (   0.1233795  -0.2500000   0.2483795), wk =   0.0078125
        k(  195) = (  -0.5016205  -0.1250000  -0.2516205), wk =   0.0078125
        k(  196) = (   0.4983795   0.2500000   0.3733795), wk =   0.0078125
        k(  197) = (   0.2483795   0.3750000   0.4983795), wk =   0.0078125
        k(  198) = (   0.1233795  -0.3750000  -0.1266205), wk =   0.0078125
        k(  199) = (  -0.2516205   0.2500000   0.1233795), wk =   0.0078125
        k(  200) = (  -0.1266205  -0.2500000  -0.5016205), wk =   0.0078125
        k(  201) = (  -0.0016205   0.1250000  -0.0016205), wk =   0.0078125
        k(  202) = (  -0.0016205   0.5000000   0.3733795), wk =   0.0078125
        k(  203) = (  -0.1266205  -0.5000000  -0.5016205), wk =   0.0078125
        k(  204) = (  -0.0016205   0.3750000   0.4983795), wk =   0.0078125
        k(  205) = (   0.3733795   0.0000000   0.4983795), wk =   0.0078125
        k(  206) = (  -0.3766205   0.1250000  -0.3766205), wk =   0.0078125
        k(  207) = (   0.4983795   0.0000000   0.3733795), wk =   0.0078125
        k(  208) = (  -0.5016205  -0.1250000  -0.5016205), wk =   0.0078125
        k(  209) = (  -0.5016205  -0.5000000  -0.1266205), wk =   0.0078125
        k(  210) = (   0.3733795   0.5000000  -0.0016205), wk =   0.0078125
        k(  211) = (  -0.3766205  -0.3750000   0.1233795), wk =   0.0078125
        k(  212) = (   0.4983795   0.3750000  -0.0016205), wk =   0.0078125
        k(  213) = (  -0.1266205   0.3750000   0.3733795), wk =   0.0078125
        k(  214) = (  -0.0016205  -0.5000000  -0.3766205), wk =   0.0078125
        k(  215) = (   0.1233795   0.5000000   0.4983795), wk =   0.0078125
        k(  216) = (  -0.0016205  -0.3750000  -0.5016205), wk =   0.0078125
        k(  217) = (  -0.3766205   0.0000000  -0.5016205), wk =   0.0078125
        k(  218) = (   0.3733795  -0.1250000   0.3733795), wk =   0.0078125
        k(  219) = (  -0.5016205   0.0000000  -0.3766205), wk =   0.0078125
        k(  220) = (   0.4983795   0.1250000   0.4983795), wk =   0.0078125
        k(  221) = (   0.4983795   0.5000000   0.1233795), wk =   0.0078125
        k(  222) = (  -0.3766205  -0.5000000  -0.0016205), wk =   0.0078125
        k(  223) = (   0.3733795   0.3750000  -0.1266205), wk =   0.0078125
        k(  224) = (  -0.5016205  -0.3750000  -0.0016205), wk =   0.0078125
        k(  225) = (  -0.0016205   0.0000000  -0.1266205), wk =   0.0078125
        k(  226) = (  -0.0016205   0.0000000  -0.3766205), wk =   0.0078125
        k(  227) = (  -0.3766205   0.0000000  -0.0016205), wk =   0.0078125
        k(  228) = (  -0.0016205  -0.3750000  -0.0016205), wk =   0.0078125
        k(  229) = (  -0.3766205  -0.3750000  -0.3766205), wk =   0.0078125
        k(  230) = (  -0.0016205   0.0000000   0.3733795), wk =   0.0078125
        k(  231) = (   0.3733795   0.0000000  -0.0016205), wk =   0.0078125
        k(  232) = (  -0.0016205   0.3750000  -0.0016205), wk =   0.0078125
        k(  233) = (  -0.2516205  -0.2500000  -0.3766205), wk =   0.0078125
        k(  234) = (   0.7483795   0.7500000   0.3733795), wk =   0.0078125
        k(  235) = (  -0.3766205  -0.7500000  -0.0016205), wk =   0.0078125
        k(  236) = (  -0.7516205  -0.3750000  -0.0016205), wk =   0.0078125
        k(  237) = (   0.3733795   0.7500000   0.7483795), wk =   0.0078125
        k(  238) = (  -0.3766205   0.3750000   0.3733795), wk =   0.0078125
        k(  239) = (  -0.0016205  -0.7500000  -0.3766205), wk =   0.0078125
        k(  240) = (  -0.0016205  -0.3750000  -0.7516205), wk =   0.0078125
        k(  241) = (  -0.7516205   0.0000000  -0.3766205), wk =   0.0078125
        k(  242) = (  -0.3766205   0.0000000  -0.7516205), wk =   0.0078125
        k(  243) = (   0.3733795  -0.3750000   0.3733795), wk =   0.0078125
        k(  244) = (   0.7483795   0.3750000   0.7483795), wk =   0.0078125
        k(  245) = (  -0.3766205  -0.3750000   0.3733795), wk =   0.0078125
        k(  246) = (  -0.7516205  -0.7500000  -0.3766205), wk =   0.0078125
        k(  247) = (   0.3733795   0.7500000  -0.0016205), wk =   0.0078125
        k(  248) = (   0.7483795   0.3750000  -0.0016205), wk =   0.0078125
        k(  249) = (  -0.3766205  -0.7500000  -0.7516205), wk =   0.0078125
        k(  250) = (   0.3733795  -0.3750000  -0.3766205), wk =   0.0078125
        k(  251) = (  -0.0016205   0.7500000   0.3733795), wk =   0.0078125
        k(  252) = (  -0.0016205   0.3750000   0.7483795), wk =   0.0078125
        k(  253) = (   0.7483795   0.0000000   0.3733795), wk =   0.0078125
        k(  254) = (   0.3733795   0.0000000   0.7483795), wk =   0.0078125
        k(  255) = (  -0.3766205   0.3750000  -0.3766205), wk =   0.0078125
        k(  256) = (  -0.7516205  -0.3750000  -0.7516205), wk =   0.0078125

     Dense  grid:     2085 G-vectors     FFT dimensions: (  18,  18,  18)

     Dynamical RAM for                 wfc:       0.13 MB

     Dynamical RAM for     wfc (w. buffer):       0.13 MB

     Dynamical RAM for           str. fact:       0.03 MB

     Dynamical RAM for           local pot:       0.00 MB

     Dynamical RAM for          nlocal pot:       0.03 MB

     Dynamical RAM for                qrad:       0.05 MB

     Dynamical RAM for          rho,v,vnew:       0.23 MB

     Dynamical RAM for           G-vectors:       0.14 MB

     Dynamical RAM for          h,s,v(r/c):       0.19 MB

     Dynamical RAM for          <psi|beta>:       0.00 MB

     Dynamical RAM for                 psi:       0.25 MB

     Dynamical RAM for                hpsi:       0.25 MB

     Dynamical RAM for      wfcinit/wfcrot:       0.28 MB

     Estimated static dynamical RAM per process >       0.89 MB

     Estimated max dynamical RAM per process >       1.59 MB

     The potential is recalculated from file :
     ./Si_shift2_bse_nscf.save/charge-density

     Starting wfcs are    8 randomized atomic wfcs +   24 random wfcs

     Band Structure Calculation
     Davidson diagonalization with overlap

     Computing kpt #:     1  of   256
     total cpu time spent up to now is        0.2 secs

     Computing kpt #:     2  of   256
     total cpu time spent up to now is        0.4 secs

     Computing kpt #:     3  of   256
     total cpu time spent up to now is        0.5 secs

     Computing kpt #:     4  of   256
     total cpu time spent up to now is        0.6 secs

     Computing kpt #:     5  of   256
     total cpu time spent up to now is        0.7 secs

     Computing kpt #:     6  of   256
     total cpu time spent up to now is        0.8 secs

     Computing kpt #:     7  of   256
     total cpu time spent up to now is        0.9 secs

     Computing kpt #:     8  of   256
     total cpu time spent up to now is        1.0 secs

     Computing kpt #:     9  of   256
     total cpu time spent up to now is        1.1 secs

     Computing kpt #:    10  of   256
     total cpu time spent up to now is        1.2 secs

     Computing kpt #:    11  of   256
     total cpu time spent up to now is        1.3 secs

     Computing kpt #:    12  of   256
     total cpu time spent up to now is        1.5 secs

     Computing kpt #:    13  of   256
     total cpu time spent up to now is        1.6 secs

     Computing kpt #:    14  of   256
     total cpu time spent up to now is        1.7 secs

     Computing kpt #:    15  of   256
     total cpu time spent up to now is        1.8 secs

     Computing kpt #:    16  of   256
     total cpu time spent up to now is        1.9 secs

     Computing kpt #:    17  of   256
     total cpu time spent up to now is        2.0 secs

     Computing kpt #:    18  of   256
     total cpu time spent up to now is        2.2 secs

     Computing kpt #:    19  of   256
     total cpu time spent up to now is        2.3 secs

     Computing kpt #:    20  of   256
     total cpu time spent up to now is        2.4 secs

     Computing kpt #:    21  of   256
     total cpu time spent up to now is        2.5 secs

     Computing kpt #:    22  of   256
     total cpu time spent up to now is        2.6 secs

     Computing kpt #:    23  of   256
     total cpu time spent up to now is        2.8 secs

     Computing kpt #:    24  of   256
     total cpu time spent up to now is        2.9 secs

     Computing kpt #:    25  of   256
     total cpu time spent up to now is        3.0 secs

     Computing kpt #:    26  of   256
     total cpu time spent up to now is        3.1 secs

     Computing kpt #:    27  of   256
     total cpu time spent up to now is        3.2 secs

     Computing kpt #:    28  of   256
     total cpu time spent up to now is        3.4 secs

     Computing kpt #:    29  of   256
     total cpu time spent up to now is        3.5 secs

     Computing kpt #:    30  of   256
     total cpu time spent up to now is        3.6 secs

     Computing kpt #:    31  of   256
     total cpu time spent up to now is        3.7 secs

     Computing kpt #:    32  of   256
     total cpu time spent up to now is        3.8 secs

     Computing kpt #:    33  of   256
     total cpu time spent up to now is        3.9 secs

     Computing kpt #:    34  of   256
     total cpu time spent up to now is        4.0 secs

     Computing kpt #:    35  of   256
     total cpu time spent up to now is        4.1 secs

     Computing kpt #:    36  of   256
     total cpu time spent up to now is        4.2 secs

     Computing kpt #:    37  of   256
     total cpu time spent up to now is        4.3 secs

     Computing kpt #:    38  of   256
     total cpu time spent up to now is        4.4 secs

     Computing kpt #:    39  of   256
     total cpu time spent up to now is        4.5 secs

     Computing kpt #:    40  of   256
     total cpu time spent up to now is        4.6 secs

     Computing kpt #:    41  of   256
     total cpu time spent up to now is        4.7 secs

     Computing kpt #:    42  of   256
     total cpu time spent up to now is        4.8 secs

     Computing kpt #:    43  of   256
     total cpu time spent up to now is        4.9 secs

     Computing kpt #:    44  of   256
     total cpu time spent up to now is        5.0 secs

     Computing kpt #:    45  of   256
     total cpu time spent up to now is        5.1 secs

     Computing kpt #:    46  of   256
     total cpu time spent up to now is        5.2 secs

     Computing kpt #:    47  of   256
     total cpu time spent up to now is        5.4 secs

     Computing kpt #:    48  of   256
     total cpu time spent up to now is        5.5 secs

     Computing kpt #:    49  of   256
     total cpu time spent up to now is        5.6 secs

     Computing kpt #:    50  of   256
     total cpu time spent up to now is        5.7 secs

     Computing kpt #:    51  of   256
     total cpu time spent up to now is        5.8 secs

     Computing kpt #:    52  of   256
     total cpu time spent up to now is        5.9 secs

     Computing kpt #:    53  of   256
     total cpu time spent up to now is        6.0 secs

     Computing kpt #:    54  of   256
     total cpu time spent up to now is        6.1 secs

     Computing kpt #:    55  of   256
     total cpu time spent up to now is        6.2 secs

     Computing kpt #:    56  of   256
     total cpu time spent up to now is        6.3 secs

     Computing kpt #:    57  of   256
     total cpu time spent up to now is        6.4 secs

     Computing kpt #:    58  of   256
     total cpu time spent up to now is        6.5 secs

     Computing kpt #:    59  of   256
     total cpu time spent up to now is        6.6 secs

     Computing kpt #:    60  of   256
     total cpu time spent up to now is        6.7 secs

     Computing kpt #:    61  of   256
     total cpu time spent up to now is        6.8 secs

     Computing kpt #:    62  of   256
     total cpu time spent up to now is        6.9 secs

     Computing kpt #:    63  of   256
     total cpu time spent up to now is        7.0 secs

     Computing kpt #:    64  of   256
     total cpu time spent up to now is        7.1 secs

     Computing kpt #:    65  of   256
     total cpu time spent up to now is        7.2 secs

     Computing kpt #:    66  of   256
     total cpu time spent up to now is        7.3 secs

     Computing kpt #:    67  of   256
     total cpu time spent up to now is        7.5 secs

     Computing kpt #:    68  of   256
     total cpu time spent up to now is        7.6 secs

     Computing kpt #:    69  of   256
     total cpu time spent up to now is        7.7 secs

     Computing kpt #:    70  of   256
     total cpu time spent up to now is        7.8 secs

     Computing kpt #:    71  of   256
     total cpu time spent up to now is        7.9 secs

     Computing kpt #:    72  of   256
     total cpu time spent up to now is        8.0 secs

     Computing kpt #:    73  of   256
     total cpu time spent up to now is        8.1 secs

     Computing kpt #:    74  of   256
     total cpu time spent up to now is        8.2 secs

     Computing kpt #:    75  of   256
     total cpu time spent up to now is        8.3 secs

     Computing kpt #:    76  of   256
     total cpu time spent up to now is        8.4 secs

     Computing kpt #:    77  of   256
     total cpu time spent up to now is        8.5 secs

     Computing kpt #:    78  of   256
     total cpu time spent up to now is        8.6 secs

     Computing kpt #:    79  of   256
     total cpu time spent up to now is        8.7 secs

     Computing kpt #:    80  of   256
     total cpu time spent up to now is        8.9 secs

     Computing kpt #:    81  of   256
     total cpu time spent up to now is        9.0 secs

     Computing kpt #:    82  of   256
     total cpu time spent up to now is        9.1 secs

     Computing kpt #:    83  of   256
     total cpu time spent up to now is        9.2 secs

     Computing kpt #:    84  of   256
     total cpu time spent up to now is        9.3 secs

     Computing kpt #:    85  of   256
     total cpu time spent up to now is        9.4 secs

     Computing kpt #:    86  of   256
     total cpu time spent up to now is        9.5 secs

     Computing kpt #:    87  of   256
     total cpu time spent up to now is        9.6 secs

     Computing kpt #:    88  of   256
     total cpu time spent up to now is        9.7 secs

     Computing kpt #:    89  of   256
     total cpu time spent up to now is        9.8 secs

     Computing kpt #:    90  of   256
     total cpu time spent up to now is       10.0 secs

     Computing kpt #:    91  of   256
     total cpu time spent up to now is       10.1 secs

     Computing kpt #:    92  of   256
     total cpu time spent up to now is       10.2 secs

     Computing kpt #:    93  of   256
     total cpu time spent up to now is       10.3 secs

     Computing kpt #:    94  of   256
     total cpu time spent up to now is       10.4 secs

     Computing kpt #:    95  of   256
     total cpu time spent up to now is       10.5 secs

     Computing kpt #:    96  of   256
     total cpu time spent up to now is       10.6 secs

     Computing kpt #:    97  of   256
     total cpu time spent up to now is       10.7 secs

     Computing kpt #:    98  of   256
     total cpu time spent up to now is       10.8 secs

     Computing kpt #:    99  of   256
     total cpu time spent up to now is       11.0 secs

     Computing kpt #:   100  of   256
     total cpu time spent up to now is       11.1 secs

     Computing kpt #:   101  of   256
     total cpu time spent up to now is       11.2 secs

     Computing kpt #:   102  of   256
     total cpu time spent up to now is       11.3 secs

     Computing kpt #:   103  of   256
     total cpu time spent up to now is       11.4 secs

     Computing kpt #:   104  of   256
     total cpu time spent up to now is       11.5 secs

     Computing kpt #:   105  of   256
     total cpu time spent up to now is       11.7 secs

     Computing kpt #:   106  of   256
     total cpu time spent up to now is       11.8 secs

     Computing kpt #:   107  of   256
     total cpu time spent up to now is       11.9 secs

     Computing kpt #:   108  of   256
     total cpu time spent up to now is       12.0 secs

     Computing kpt #:   109  of   256
     total cpu time spent up to now is       12.1 secs

     Computing kpt #:   110  of   256
     total cpu time spent up to now is       12.2 secs

     Computing kpt #:   111  of   256
     total cpu time spent up to now is       12.3 secs

     Computing kpt #:   112  of   256
     total cpu time spent up to now is       12.4 secs

     Computing kpt #:   113  of   256
     total cpu time spent up to now is       12.5 secs

     Computing kpt #:   114  of   256
     total cpu time spent up to now is       12.6 secs

     Computing kpt #:   115  of   256
     total cpu time spent up to now is       12.7 secs

     Computing kpt #:   116  of   256
     total cpu time spent up to now is       12.8 secs

     Computing kpt #:   117  of   256
     total cpu time spent up to now is       12.9 secs

     Computing kpt #:   118  of   256
     total cpu time spent up to now is       13.0 secs

     Computing kpt #:   119  of   256
     total cpu time spent up to now is       13.1 secs

     Computing kpt #:   120  of   256
     total cpu time spent up to now is       13.2 secs

     Computing kpt #:   121  of   256
     total cpu time spent up to now is       13.3 secs

     Computing kpt #:   122  of   256
     total cpu time spent up to now is       13.4 secs

     Computing kpt #:   123  of   256
     total cpu time spent up to now is       13.5 secs

     Computing kpt #:   124  of   256
     total cpu time spent up to now is       13.6 secs

     Computing kpt #:   125  of   256
     total cpu time spent up to now is       13.7 secs

     Computing kpt #:   126  of   256
     total cpu time spent up to now is       13.8 secs

     Computing kpt #:   127  of   256
     total cpu time spent up to now is       13.9 secs

     Computing kpt #:   128  of   256
     total cpu time spent up to now is       14.0 secs

     Computing kpt #:   129  of   256
     total cpu time spent up to now is       14.1 secs

     Computing kpt #:   130  of   256
     total cpu time spent up to now is       14.2 secs

     Computing kpt #:   131  of   256
     total cpu time spent up to now is       14.3 secs

     Computing kpt #:   132  of   256
     total cpu time spent up to now is       14.4 secs

     Computing kpt #:   133  of   256
     total cpu time spent up to now is       14.5 secs

     Computing kpt #:   134  of   256
     total cpu time spent up to now is       14.6 secs

     Computing kpt #:   135  of   256
     total cpu time spent up to now is       14.7 secs

     Computing kpt #:   136  of   256
     total cpu time spent up to now is       14.8 secs

     Computing kpt #:   137  of   256
     total cpu time spent up to now is       14.9 secs

     Computing kpt #:   138  of   256
     total cpu time spent up to now is       15.0 secs

     Computing kpt #:   139  of   256
     total cpu time spent up to now is       15.1 secs

     Computing kpt #:   140  of   256
     total cpu time spent up to now is       15.2 secs

     Computing kpt #:   141  of   256
     total cpu time spent up to now is       15.3 secs

     Computing kpt #:   142  of   256
     total cpu time spent up to now is       15.4 secs

     Computing kpt #:   143  of   256
     total cpu time spent up to now is       15.5 secs

     Computing kpt #:   144  of   256
     total cpu time spent up to now is       15.6 secs

     Computing kpt #:   145  of   256
     total cpu time spent up to now is       15.7 secs

     Computing kpt #:   146  of   256
     total cpu time spent up to now is       15.8 secs

     Computing kpt #:   147  of   256
     total cpu time spent up to now is       15.9 secs

     Computing kpt #:   148  of   256
     total cpu time spent up to now is       16.0 secs

     Computing kpt #:   149  of   256
     total cpu time spent up to now is       16.1 secs

     Computing kpt #:   150  of   256
     total cpu time spent up to now is       16.2 secs

     Computing kpt #:   151  of   256
     total cpu time spent up to now is       16.3 secs

     Computing kpt #:   152  of   256
     total cpu time spent up to now is       16.4 secs

     Computing kpt #:   153  of   256
     total cpu time spent up to now is       16.5 secs

     Computing kpt #:   154  of   256
     total cpu time spent up to now is       16.6 secs

     Computing kpt #:   155  of   256
     total cpu time spent up to now is       16.8 secs

     Computing kpt #:   156  of   256
     total cpu time spent up to now is       16.9 secs

     Computing kpt #:   157  of   256
     total cpu time spent up to now is       17.0 secs

     Computing kpt #:   158  of   256
     total cpu time spent up to now is       17.1 secs

     Computing kpt #:   159  of   256
     total cpu time spent up to now is       17.2 secs

     Computing kpt #:   160  of   256
     total cpu time spent up to now is       17.3 secs

     Computing kpt #:   161  of   256
     total cpu time spent up to now is       17.4 secs

     Computing kpt #:   162  of   256
     total cpu time spent up to now is       17.5 secs

     Computing kpt #:   163  of   256
     total cpu time spent up to now is       17.6 secs

     Computing kpt #:   164  of   256
     total cpu time spent up to now is       17.7 secs

     Computing kpt #:   165  of   256
     total cpu time spent up to now is       17.8 secs

     Computing kpt #:   166  of   256
     total cpu time spent up to now is       17.9 secs

     Computing kpt #:   167  of   256
     total cpu time spent up to now is       18.0 secs

     Computing kpt #:   168  of   256
     total cpu time spent up to now is       18.1 secs

     Computing kpt #:   169  of   256
     total cpu time spent up to now is       18.2 secs

     Computing kpt #:   170  of   256
     total cpu time spent up to now is       18.4 secs

     Computing kpt #:   171  of   256
     total cpu time spent up to now is       18.5 secs

     Computing kpt #:   172  of   256
     total cpu time spent up to now is       18.6 secs

     Computing kpt #:   173  of   256
     total cpu time spent up to now is       18.7 secs

     Computing kpt #:   174  of   256
     total cpu time spent up to now is       18.8 secs

     Computing kpt #:   175  of   256
     total cpu time spent up to now is       18.9 secs

     Computing kpt #:   176  of   256
     total cpu time spent up to now is       19.0 secs

     Computing kpt #:   177  of   256
     total cpu time spent up to now is       19.1 secs

     Computing kpt #:   178  of   256
     total cpu time spent up to now is       19.2 secs

     Computing kpt #:   179  of   256
     total cpu time spent up to now is       19.3 secs

     Computing kpt #:   180  of   256
     total cpu time spent up to now is       19.4 secs

     Computing kpt #:   181  of   256
     total cpu time spent up to now is       19.5 secs

     Computing kpt #:   182  of   256
     total cpu time spent up to now is       19.6 secs

     Computing kpt #:   183  of   256
     total cpu time spent up to now is       19.8 secs

     Computing kpt #:   184  of   256
     total cpu time spent up to now is       19.9 secs

     Computing kpt #:   185  of   256
     total cpu time spent up to now is       20.0 secs

     Computing kpt #:   186  of   256
     total cpu time spent up to now is       20.1 secs

     Computing kpt #:   187  of   256
     total cpu time spent up to now is       20.2 secs

     Computing kpt #:   188  of   256
     total cpu time spent up to now is       20.3 secs

     Computing kpt #:   189  of   256
     total cpu time spent up to now is       20.4 secs

     Computing kpt #:   190  of   256
     total cpu time spent up to now is       20.5 secs

     Computing kpt #:   191  of   256
     total cpu time spent up to now is       20.6 secs

     Computing kpt #:   192  of   256
     total cpu time spent up to now is       20.7 secs

     Computing kpt #:   193  of   256
     total cpu time spent up to now is       20.8 secs

     Computing kpt #:   194  of   256
     total cpu time spent up to now is       20.9 secs

     Computing kpt #:   195  of   256
     total cpu time spent up to now is       21.0 secs

     Computing kpt #:   196  of   256
     total cpu time spent up to now is       21.1 secs

     Computing kpt #:   197  of   256
     total cpu time spent up to now is       21.3 secs

     Computing kpt #:   198  of   256
     total cpu time spent up to now is       21.4 secs

     Computing kpt #:   199  of   256
     total cpu time spent up to now is       21.5 secs

     Computing kpt #:   200  of   256
     total cpu time spent up to now is       21.6 secs

     Computing kpt #:   201  of   256
     total cpu time spent up to now is       21.7 secs

     Computing kpt #:   202  of   256
     total cpu time spent up to now is       21.8 secs

     Computing kpt #:   203  of   256
     total cpu time spent up to now is       21.9 secs

     Computing kpt #:   204  of   256
     total cpu time spent up to now is       22.0 secs

     Computing kpt #:   205  of   256
     total cpu time spent up to now is       22.1 secs

     Computing kpt #:   206  of   256
     total cpu time spent up to now is       22.2 secs

     Computing kpt #:   207  of   256
     total cpu time spent up to now is       22.3 secs

     Computing kpt #:   208  of   256
     total cpu time spent up to now is       22.4 secs

     Computing kpt #:   209  of   256
     total cpu time spent up to now is       22.5 secs

     Computing kpt #:   210  of   256
     total cpu time spent up to now is       22.6 secs

     Computing kpt #:   211  of   256
     total cpu time spent up to now is       22.7 secs

     Computing kpt #:   212  of   256
     total cpu time spent up to now is       22.8 secs

     Computing kpt #:   213  of   256
     total cpu time spent up to now is       22.9 secs

     Computing kpt #:   214  of   256
     total cpu time spent up to now is       23.0 secs

     Computing kpt #:   215  of   256
     total cpu time spent up to now is       23.1 secs

     Computing kpt #:   216  of   256
     total cpu time spent up to now is       23.2 secs

     Computing kpt #:   217  of   256
     total cpu time spent up to now is       23.3 secs

     Computing kpt #:   218  of   256
     total cpu time spent up to now is       23.5 secs

     Computing kpt #:   219  of   256
     total cpu time spent up to now is       23.6 secs

     Computing kpt #:   220  of   256
     total cpu time spent up to now is       23.7 secs

     Computing kpt #:   221  of   256
     total cpu time spent up to now is       23.8 secs

     Computing kpt #:   222  of   256
     total cpu time spent up to now is       23.9 secs

     Computing kpt #:   223  of   256
     total cpu time spent up to now is       24.0 secs

     Computing kpt #:   224  of   256
     total cpu time spent up to now is       24.1 secs

     Computing kpt #:   225  of   256
     total cpu time spent up to now is       24.2 secs

     Computing kpt #:   226  of   256
     total cpu time spent up to now is       24.3 secs

     Computing kpt #:   227  of   256
     total cpu time spent up to now is       24.4 secs

     Computing kpt #:   228  of   256
     total cpu time spent up to now is       24.5 secs

     Computing kpt #:   229  of   256
     total cpu time spent up to now is       24.6 secs

     Computing kpt #:   230  of   256
     total cpu time spent up to now is       24.7 secs

     Computing kpt #:   231  of   256
     total cpu time spent up to now is       24.8 secs

     Computing kpt #:   232  of   256
     total cpu time spent up to now is       24.9 secs

     Computing kpt #:   233  of   256
     total cpu time spent up to now is       25.0 secs

     Computing kpt #:   234  of   256
     total cpu time spent up to now is       25.1 secs

     Computing kpt #:   235  of   256
     total cpu time spent up to now is       25.2 secs

     Computing kpt #:   236  of   256
     total cpu time spent up to now is       25.3 secs

     Computing kpt #:   237  of   256
     total cpu time spent up to now is       25.4 secs

     Computing kpt #:   238  of   256
     total cpu time spent up to now is       25.6 secs

     Computing kpt #:   239  of   256
     total cpu time spent up to now is       25.7 secs

     Computing kpt #:   240  of   256
     total cpu time spent up to now is       25.8 secs

     Computing kpt #:   241  of   256
     total cpu time spent up to now is       25.9 secs

     Computing kpt #:   242  of   256
     total cpu time spent up to now is       26.0 secs

     Computing kpt #:   243  of   256
     total cpu time spent up to now is       26.1 secs

     Computing kpt #:   244  of   256
     total cpu time spent up to now is       26.2 secs

     Computing kpt #:   245  of   256
     total cpu time spent up to now is       26.3 secs

     Computing kpt #:   246  of   256
     total cpu time spent up to now is       26.4 secs

     Computing kpt #:   247  of   256
     total cpu time spent up to now is       26.5 secs

     Computing kpt #:   248  of   256
     total cpu time spent up to now is       26.6 secs

     Computing kpt #:   249  of   256
     total cpu time spent up to now is       26.7 secs

     Computing kpt #:   250  of   256
     total cpu time spent up to now is       26.8 secs

     Computing kpt #:   251  of   256
     total cpu time spent up to now is       26.9 secs

     Computing kpt #:   252  of   256
     total cpu time spent up to now is       27.0 secs

     Computing kpt #:   253  of   256
     total cpu time spent up to now is       27.1 secs

     Computing kpt #:   254  of   256
     total cpu time spent up to now is       27.3 secs

     Computing kpt #:   255  of   256
     total cpu time spent up to now is       27.4 secs

     Computing kpt #:   256  of   256
     total cpu time spent up to now is       27.5 secs

     ethr =  1.25E-12,  avg # of iterations = 31.4

     total cpu time spent up to now is       27.5 secs

     End of band structure calculation

          k =-0.1218 0.1250 0.1250 (   271 PWs)   bands (ev):

    -5.5695   4.7259   6.0097   6.0234   8.8616   9.3099   9.3257  11.1129
    13.6963  13.7199  14.9066  16.9927  18.7943  18.8201  22.7977  27.6950
    27.7317  27.8918  30.5829  30.5875  32.7800  32.7821  33.5868  36.3505
    38.3133  38.3405  39.1782  41.2301  41.2599  41.9386  43.7407  43.7762

     occupation numbers 
     1.0000   1.0000   1.0000   1.0000   0.0000   0.0000   0.0000   0.0000
     0.0000   0.0000   0.0000   0.0000   0.0000   0.0000   0.0000   0.0000
     0.0000   0.0000   0.0000   0.0000   0.0000   0.0000   0.0000   0.0000
     0.0000   0.0000   0.0000   0.0000   0.0000   0.0000   0.0000   0.0000

          k =-0.3718 0.3750-0.1250 (   262 PWs)   bands (ev):

    -4.5029   1.6653   3.9547   5.5236   9.0963  10.0127  10.1901  12.6468
    12.8945  16.1054  16.5173  18.7765  20.4868  21.8480  22.9917  24.5184
    25.3937  28.0582  28.6397  29.5507  32.6975  33.2105  33.6858  36.2392
    36.3147  37.4656  37.9154  38.8736  40.0761  41.1126  41.3993  43.9349

     occupation numbers 
     1.0000   1.0000   1.0000   1.0000   0.0000   0.0000   0.0000   0.0000
     0.0000   0.0000   0.0000   0.0000   0.0000   0.0000   0.0000   0.0000
     0.0000   0.0000   0.0000   0.0000   0.0000   0.0000   0.0000   0.0000
     0.0000   0.0000   0.0000   0.0000   0.0000   0.0000   0.0000   0.0000

          k = 0.3782-0.3750 0.6250 (   259 PWs)   bands (ev):

    -3.2816  -0.5430   3.9979   4.7125   8.5349   9.8479  10.4481  13.7597
    15.2956  17.0050  17.9143  18.1818  18.9337  21.4800  24.7749  26.2742
    26.7513  27.7213  28.6215  28.9045  31.2592  32.4027  33.0460  34.2847
    34.7264  36.0721  36.6331  36.6725  39.2205  40.1209  40.5661  40.7149

     occupation numbers 
     1.0000   1.0000   1.0000   1.0000   0.0000   0.0000   0.0000   0.0000
     0.0000   0.0000   0.0000   0.0000   0.0000   0.0000   0.0000   0.0000
     0.0000   0.0000   0.0000   0.0000   0.0000   0.0000   0.0000   0.0000
     0.0000   0.0000   0.0000   0.0000   0.0000   0.0000   0.0000   0.0000

          k = 0.1282-0.1250 0.3750 (   263 PWs)   bands (ev):

    -5.0103   3.0623   4.9543   5.0517   8.4598  10.0936  10.8382  11.1053
    13.9393  14.6854  16.2494  17.8978  19.6078  20.8960  24.1214  24.5539
    25.6442  28.0716  28.3151  29.5675  32.7233  33.9134  34.9545  36.3401
    38.2239  38.7071  38.7473  39.8354  40.3471  41.1766  42.1360  42.7454

     occupation numbers 
     1.0000   1.0000   1.0000   1.0000   0.0000   0.0000   0.0000   0.0000
     0.0000   0.0000   0.0000   0.0000   0.0000   0.0000   0.0000   0.0000
     0.0000   0.0000   0.0000   0.0000   0.0000   0.0000   0.0000   0.0000
     0.0000   0.0000   0.0000   0.0000   0.0000   0.0000   0.0000   0.0000

          k =-0.1218 0.6250 0.1250 (   258 PWs)   bands (ev):

    -3.9404   1.3873   3.5699   4.0399   7.6134   9.1738  12.4220  12.6938
    16.5242  16.5908  18.0118  19.7778  20.0961  21.3080  22.3451  23.5024
    25.0110  26.3174  28.4743  30.7361  31.6800  33.0257  33.0608  33.8950
    35.5606  35.9514  37.0200  39.6659  40.3369  42.1424  42.6281  43.4859

     occupation numbers 
     1.0000   1.0000   1.0000   1.0000   0.0000   0.0000   0.0000   0.0000
     0.0000   0.0000   0.0000   0.0000   0.0000   0.0000   0.0000   0.0000
     0.0000   0.0000   0.0000   0.0000   0.0000   0.0000   0.0000   0.0000
     0.0000   0.0000   0.0000   0.0000   0.0000   0.0000   0.0000   0.0000

          k = 0.6282-0.1250 0.8750 (   258 PWs)   bands (ev):

    -2.2165  -0.6383   2.1218   3.2623   8.6478  10.5686  11.6943  13.8819
    14.8509  17.5787  18.7194  20.6811  21.8893  22.4960  23.9977  24.7758
    25.2754  26.0113  27.5388  28.3340  29.3094  30.7138  31.4750  34.1603
    34.5362  35.4096  37.2992  37.7114  38.7821  39.1336  40.8642  43.1770

     occupation numbers 
     1.0000   1.0000   1.0000   1.0000   0.0000   0.0000   0.0000   0.0000
     0.0000   0.0000   0.0000   0.0000   0.0000   0.0000   0.0000   0.0000
     0.0000   0.0000   0.0000   0.0000   0.0000   0.0000   0.0000   0.0000
     0.0000   0.0000   0.0000   0.0000   0.0000   0.0000   0.0000   0.0000

          k = 0.3782 0.1250 0.6250 (   259 PWs)   bands (ev):

    -3.4893   0.4195   2.8919   4.3304   9.2232   9.8592  11.4089  12.3286
    15.4568  16.0980  18.3679  19.4688  20.6914  21.5854  23.7734  24.7555
    25.6066  27.5828  28.4401  29.3637  30.7527  32.1718  32.5252  33.7013
    35.3398  36.1985  37.8844  38.0595  38.9551  39.9513  41.0891  42.4465

     occupation numbers 
     1.0000   1.0000   1.0000   1.0000   0.0000   0.0000   0.0000   0.0000
     0.0000   0.0000   0.0000   0.0000   0.0000   0.0000   0.0000   0.0000
     0.0000   0.0000   0.0000   0.0000   0.0000   0.0000   0.0000   0.0000
     0.0000   0.0000   0.0000   0.0000   0.0000   0.0000   0.0000   0.0000

          k =-0.1218-0.8750 0.1250 (   254 PWs)   bands (ev):

    -2.4041  -0.5270   2.7801   3.5524   7.1405   8.2236  14.7278  14.8010
    17.2216  17.3593  18.8973  19.2514  21.3237  21.5634  22.3763  25.1403
    25.2412  25.8774  27.2634  28.8758  29.0986  30.0690  30.6896  32.5694
    36.1183  36.6253  38.4446  39.1604  39.8963  41.1370  42.3464  42.5948

     occupation numbers 
     1.0000   1.0000   1.0000   1.0000   0.0000   0.0000   0.0000   0.0000
     0.0000   0.0000   0.0000   0.0000   0.0000   0.0000   0.0000   0.0000
     0.0000   0.0000   0.0000   0.0000   0.0000   0.0000   0.0000   0.0000
     0.0000   0.0000   0.0000   0.0000   0.0000   0.0000   0.0000   0.0000

          k =-0.3718 0.3750 0.3750 (   256 PWs)   bands (ev):

    -4.0438   0.2985   5.1965   5.2048   8.0532   9.7919   9.8000  14.0894
    15.0321  15.0664  15.9853  20.3321  20.3733  20.3976  23.0691  25.0603
    25.0933  29.2734  30.4482  30.5839  30.5858  33.4770  33.5169  35.0585
    35.0600  35.8793  37.6145  39.3069  39.3554  40.3599  40.4068  40.4600

     occupation numbers 
     1.0000   1.0000   1.0000   1.0000   0.0000   0.0000   0.0000   0.0000
     0.0000   0.0000   0.0000   0.0000   0.0000   0.0000   0.0000   0.0000
     0.0000   0.0000   0.0000   0.0000   0.0000   0.0000   0.0000   0.0000
     0.0000   0.0000   0.0000   0.0000   0.0000   0.0000   0.0000   0.0000

          k = 0.3782-0.3750 1.1250 (   255 PWs)   bands (ev):

    -2.7752  -0.3713   2.2117   4.3815   8.1419  11.8027  11.8646  13.3816
    14.3696  14.4360  18.8982  21.4583  21.5280  22.5077  22.9011  25.0852
    25.9796  26.4692  28.3479  28.7281  31.3618  31.7845  32.4842  32.9862
    34.1872  35.0403  36.0388  36.7193  39.9877  40.9138  41.6591  42.5210

     occupation numbers 
     1.0000   1.0000   1.0000   1.0000   0.0000   0.0000   0.0000   0.0000
     0.0000   0.0000   0.0000   0.0000   0.0000   0.0000   0.0000   0.0000
     0.0000   0.0000   0.0000   0.0000   0.0000   0.0000   0.0000   0.0000
     0.0000   0.0000   0.0000   0.0000   0.0000   0.0000   0.0000   0.0000

          k = 0.3782 0.3750 0.1250 (   262 PWs)   bands (ev):

    -4.4830   1.6303   3.9254   5.5113   9.0981  10.0280  10.1970  12.6565
    12.9007  16.1211  16.5846  18.7920  20.4801  21.8440  23.0136  24.4943
    25.4051  28.1212  28.6098  29.5320  32.6421  33.1932  33.6684  36.1812
    36.2722  37.4660  37.8597  38.8351  40.1148  41.1073  41.3668  43.8893

     occupation numbers 
     1.0000   1.0000   1.0000   1.0000   0.0000   0.0000   0.0000   0.0000
     0.0000   0.0000   0.0000   0.0000   0.0000   0.0000   0.0000   0.0000
     0.0000   0.0000   0.0000   0.0000   0.0000   0.0000   0.0000   0.0000
     0.0000   0.0000   0.0000   0.0000   0.0000   0.0000   0.0000   0.0000

          k =-0.3718-0.3750 0.1250 (   262 PWs)   bands (ev):

    -4.5029   1.6653   3.9547   5.5236   9.0963  10.0127  10.1901  12.6468
    12.8945  16.1054  16.5173  18.7765  20.4868  21.8480  22.9917  24.5184
    25.3937  28.0582  28.6397  29.5507  32.6975  33.2105  33.6858  36.2392
    36.3147  37.4656  37.9154  38.8736  40.0761  41.1126  41.3993  43.9349

     occupation numbers 
     1.0000   1.0000   1.0000   1.0000   0.0000   0.0000   0.0000   0.0000
     0.0000   0.0000   0.0000   0.0000   0.0000   0.0000   0.0000   0.0000
     0.0000   0.0000   0.0000   0.0000   0.0000   0.0000   0.0000   0.0000
     0.0000   0.0000   0.0000   0.0000   0.0000   0.0000   0.0000   0.0000

          k = 0.3782-0.1250-0.3750 (   262 PWs)   bands (ev):

    -4.4830   1.6303   3.9254   5.5113   9.0981  10.0280  10.1970  12.6565
    12.9007  16.1211  16.5846  18.7920  20.4801  21.8440  23.0136  24.4943
    25.4051  28.1212  28.6098  29.5320  32.6421  33.1932  33.6684  36.1812
    36.2722  37.4660  37.8597  38.8351  40.1148  41.1073  41.3668  43.8893

     occupation numbers 
     1.0000   1.0000   1.0000   1.0000   0.0000   0.0000   0.0000   0.0000
     0.0000   0.0000   0.0000   0.0000   0.0000   0.0000   0.0000   0.0000
     0.0000   0.0000   0.0000   0.0000   0.0000   0.0000   0.0000   0.0000
     0.0000   0.0000   0.0000   0.0000   0.0000   0.0000   0.0000   0.0000

          k =-0.3718-0.1250 0.3750 (   262 PWs)   bands (ev):

    -4.5029   1.6653   3.9547   5.5236   9.0963  10.0127  10.1901  12.6468
    12.8945  16.1054  16.5173  18.7765  20.4868  21.8480  22.9917  24.5184
    25.3937  28.0582  28.6397  29.5507  32.6975  33.2105  33.6858  36.2392
    36.3147  37.4656  37.9154  38.8736  40.0761  41.1126  41.3993  43.9349

     occupation numbers 
     1.0000   1.0000   1.0000   1.0000   0.0000   0.0000   0.0000   0.0000
     0.0000   0.0000   0.0000   0.0000   0.0000   0.0000   0.0000   0.0000
     0.0000   0.0000   0.0000   0.0000   0.0000   0.0000   0.0000   0.0000
     0.0000   0.0000   0.0000   0.0000   0.0000   0.0000   0.0000   0.0000

          k = 0.3782 0.1250 0.3750 (   262 PWs)   bands (ev):

    -4.4830   1.6303   3.9254   5.5113   9.0981  10.0280  10.1970  12.6565
    12.9007  16.1211  16.5846  18.7920  20.4801  21.8440  23.0136  24.4943
    25.4051  28.1212  28.6098  29.5320  32.6421  33.1932  33.6684  36.1812
    36.2722  37.4660  37.8597  38.8351  40.1148  41.1073  41.3668  43.8893

     occupation numbers 
     1.0000   1.0000   1.0000   1.0000   0.0000   0.0000   0.0000   0.0000
     0.0000   0.0000   0.0000   0.0000   0.0000   0.0000   0.0000   0.0000
     0.0000   0.0000   0.0000   0.0000   0.0000   0.0000   0.0000   0.0000
     0.0000   0.0000   0.0000   0.0000   0.0000   0.0000   0.0000   0.0000

          k =-0.3718 0.1250-0.3750 (   262 PWs)   bands (ev):

    -4.5029   1.6653   3.9547   5.5236   9.0963  10.0127  10.1901  12.6468
    12.8945  16.1054  16.5173  18.7765  20.4868  21.8480  22.9917  24.5184
    25.3937  28.0582  28.6397  29.5507  32.6975  33.2105  33.6858  36.2392
    36.3147  37.4656  37.9154  38.8736  40.0761  41.1126  41.3993  43.9349

     occupation numbers 
     1.0000   1.0000   1.0000   1.0000   0.0000   0.0000   0.0000   0.0000
     0.0000   0.0000   0.0000   0.0000   0.0000   0.0000   0.0000   0.0000
     0.0000   0.0000   0.0000   0.0000   0.0000   0.0000   0.0000   0.0000
[...]
     0.0000   0.0000   0.0000   0.0000   0.0000   0.0000   0.0000   0.0000
     0.0000   0.0000   0.0000   0.0000   0.0000   0.0000   0.0000   0.0000
     0.0000   0.0000   0.0000   0.0000   0.0000   0.0000   0.0000   0.0000

          k = 0.3782 0.3750 0.3750 (   257 PWs)   bands (ev):

    -4.0273   0.2681   5.1928   5.2005   8.0476   9.7885   9.7969  14.0844
    15.0662  15.1009  16.0194  20.2883  20.3201  20.4019  23.0756  25.1131
    25.1458  29.3221  30.3817  30.5683  30.5705  33.4758  33.5172  35.0115
    35.0144  35.8612  37.6265  39.2952  39.3427  40.3414  40.3877  40.3978

     occupation numbers 
     1.0000   1.0000   1.0000   1.0000   0.0000   0.0000   0.0000   0.0000
     0.0000   0.0000   0.0000   0.0000   0.0000   0.0000   0.0000   0.0000
     0.0000   0.0000   0.0000   0.0000   0.0000   0.0000   0.0000   0.0000
     0.0000   0.0000   0.0000   0.0000   0.0000   0.0000   0.0000   0.0000

          k = 0.3782-0.3750-0.1250 (   262 PWs)   bands (ev):

    -4.4830   1.6303   3.9254   5.5113   9.0981  10.0280  10.1970  12.6565
    12.9007  16.1211  16.5846  18.7920  20.4801  21.8440  23.0136  24.4943
    25.4051  28.1212  28.6098  29.5320  32.6421  33.1932  33.6684  36.1812
    36.2722  37.4660  37.8597  38.8351  40.1148  41.1073  41.3668  43.8893

     occupation numbers 
     1.0000   1.0000   1.0000   1.0000   0.0000   0.0000   0.0000   0.0000
     0.0000   0.0000   0.0000   0.0000   0.0000   0.0000   0.0000   0.0000
     0.0000   0.0000   0.0000   0.0000   0.0000   0.0000   0.0000   0.0000
     0.0000   0.0000   0.0000   0.0000   0.0000   0.0000   0.0000   0.0000

          k =-0.3718 0.3750 1.1250 (   255 PWs)   bands (ev):

    -2.7558  -0.3859   2.1994   4.3668   8.1249  11.8312  11.8960  13.3166
    14.3984  14.4667  18.9318  21.4295  21.5134  22.5748  22.9406  25.0446
    25.9847  26.4378  28.3454  28.6740  31.3577  31.7392  32.5161  32.9162
    34.2211  35.1086  36.0398  36.6544  39.9740  40.9180  41.6340  42.5091

     occupation numbers 
     1.0000   1.0000   1.0000   1.0000   0.0000   0.0000   0.0000   0.0000
     0.0000   0.0000   0.0000   0.0000   0.0000   0.0000   0.0000   0.0000
     0.0000   0.0000   0.0000   0.0000   0.0000   0.0000   0.0000   0.0000
     0.0000   0.0000   0.0000   0.0000   0.0000   0.0000   0.0000   0.0000

          k =-0.3718-0.3750-1.1250 (   255 PWs)   bands (ev):

    -2.7558  -0.3859   2.1994   4.3668   8.1249  11.8312  11.8960  13.3166
    14.3984  14.4667  18.9318  21.4295  21.5134  22.5748  22.9406  25.0446
    25.9847  26.4378  28.3454  28.6740  31.3577  31.7392  32.5161  32.9162
    34.2211  35.1086  36.0398  36.6544  39.9740  40.9180  41.6340  42.5091

     occupation numbers 
     1.0000   1.0000   1.0000   1.0000   0.0000   0.0000   0.0000   0.0000
     0.0000   0.0000   0.0000   0.0000   0.0000   0.0000   0.0000   0.0000
     0.0000   0.0000   0.0000   0.0000   0.0000   0.0000   0.0000   0.0000
     0.0000   0.0000   0.0000   0.0000   0.0000   0.0000   0.0000   0.0000

          k = 0.3782 0.3750-1.1250 (   255 PWs)   bands (ev):

    -2.7752  -0.3713   2.2117   4.3815   8.1419  11.8027  11.8646  13.3816
    14.3696  14.4360  18.8982  21.4583  21.5280  22.5077  22.9011  25.0852
    25.9796  26.4692  28.3479  28.7281  31.3618  31.7845  32.4842  32.9862
    34.1872  35.0403  36.0388  36.7193  39.9877  40.9138  41.6591  42.5210

     occupation numbers 
     1.0000   1.0000   1.0000   1.0000   0.0000   0.0000   0.0000   0.0000
     0.0000   0.0000   0.0000   0.0000   0.0000   0.0000   0.0000   0.0000
     0.0000   0.0000   0.0000   0.0000   0.0000   0.0000   0.0000   0.0000
     0.0000   0.0000   0.0000   0.0000   0.0000   0.0000   0.0000   0.0000

          k =-0.3718 1.1250 0.3750 (   255 PWs)   bands (ev):

    -2.7558  -0.3859   2.1994   4.3668   8.1249  11.8312  11.8960  13.3166
    14.3984  14.4667  18.9318  21.4295  21.5134  22.5748  22.9406  25.0446
    25.9847  26.4378  28.3454  28.6740  31.3577  31.7392  32.5161  32.9162
    34.2211  35.1086  36.0398  36.6544  39.9740  40.9180  41.6340  42.5091

     occupation numbers 
     1.0000   1.0000   1.0000   1.0000   0.0000   0.0000   0.0000   0.0000
     0.0000   0.0000   0.0000   0.0000   0.0000   0.0000   0.0000   0.0000
     0.0000   0.0000   0.0000   0.0000   0.0000   0.0000   0.0000   0.0000
     0.0000   0.0000   0.0000   0.0000   0.0000   0.0000   0.0000   0.0000

          k = 0.3782 1.1250-0.3750 (   255 PWs)   bands (ev):

    -2.7752  -0.3713   2.2117   4.3815   8.1419  11.8027  11.8646  13.3816
    14.3696  14.4360  18.8982  21.4583  21.5280  22.5077  22.9011  25.0852
    25.9796  26.4692  28.3479  28.7281  31.3618  31.7845  32.4842  32.9862
    34.1872  35.0403  36.0388  36.7193  39.9877  40.9138  41.6591  42.5210

     occupation numbers 
     1.0000   1.0000   1.0000   1.0000   0.0000   0.0000   0.0000   0.0000
     0.0000   0.0000   0.0000   0.0000   0.0000   0.0000   0.0000   0.0000
     0.0000   0.0000   0.0000   0.0000   0.0000   0.0000   0.0000   0.0000
     0.0000   0.0000   0.0000   0.0000   0.0000   0.0000   0.0000   0.0000

          k =-0.3718-1.1250-0.3750 (   255 PWs)   bands (ev):

    -2.7558  -0.3859   2.1994   4.3668   8.1249  11.8312  11.8960  13.3166
    14.3984  14.4667  18.9318  21.4295  21.5134  22.5748  22.9406  25.0446
    25.9847  26.4378  28.3454  28.6740  31.3577  31.7392  32.5161  32.9162
    34.2211  35.1086  36.0398  36.6544  39.9740  40.9180  41.6340  42.5091

     occupation numbers 
     1.0000   1.0000   1.0000   1.0000   0.0000   0.0000   0.0000   0.0000
     0.0000   0.0000   0.0000   0.0000   0.0000   0.0000   0.0000   0.0000
     0.0000   0.0000   0.0000   0.0000   0.0000   0.0000   0.0000   0.0000
     0.0000   0.0000   0.0000   0.0000   0.0000   0.0000   0.0000   0.0000

          k = 0.3782-1.1250 0.3750 (   255 PWs)   bands (ev):

    -2.7752  -0.3713   2.2117   4.3815   8.1419  11.8027  11.8646  13.3816
    14.3696  14.4360  18.8982  21.4583  21.5280  22.5077  22.9011  25.0852
    25.9796  26.4692  28.3479  28.7281  31.3618  31.7845  32.4842  32.9862
    34.1872  35.0403  36.0388  36.7193  39.9877  40.9138  41.6591  42.5210

     occupation numbers 
     1.0000   1.0000   1.0000   1.0000   0.0000   0.0000   0.0000   0.0000
     0.0000   0.0000   0.0000   0.0000   0.0000   0.0000   0.0000   0.0000
     0.0000   0.0000   0.0000   0.0000   0.0000   0.0000   0.0000   0.0000
     0.0000   0.0000   0.0000   0.0000   0.0000   0.0000   0.0000   0.0000

          k = 1.1282 0.3750-0.3750 (   255 PWs)   bands (ev):

    -2.7684  -0.3857   2.2233   4.3767   8.1369  11.7986  11.8514  13.3513
    14.4222  14.4680  18.8781  21.4075  21.4950  22.5456  22.9410  25.1063
    26.0169  26.4456  28.3349  28.6710  31.3954  31.7969  32.5112  32.9101
    34.1951  35.0872  36.0384  36.7338  39.9156  40.9064  41.6424  42.5332

     occupation numbers 
     1.0000   1.0000   1.0000   1.0000   0.0000   0.0000   0.0000   0.0000
     0.0000   0.0000   0.0000   0.0000   0.0000   0.0000   0.0000   0.0000
     0.0000   0.0000   0.0000   0.0000   0.0000   0.0000   0.0000   0.0000
     0.0000   0.0000   0.0000   0.0000   0.0000   0.0000   0.0000   0.0000

          k = 1.1282-0.3750 0.3750 (   255 PWs)   bands (ev):

    -2.7684  -0.3857   2.2233   4.3767   8.1369  11.7986  11.8514  13.3513
    14.4222  14.4680  18.8781  21.4075  21.4950  22.5456  22.9410  25.1063
    26.0169  26.4456  28.3349  28.6710  31.3954  31.7969  32.5112  32.9101
    34.1951  35.0872  36.0384  36.7338  39.9156  40.9064  41.6424  42.5332

     occupation numbers 
     1.0000   1.0000   1.0000   1.0000   0.0000   0.0000   0.0000   0.0000
     0.0000   0.0000   0.0000   0.0000   0.0000   0.0000   0.0000   0.0000
     0.0000   0.0000   0.0000   0.0000   0.0000   0.0000   0.0000   0.0000
     0.0000   0.0000   0.0000   0.0000   0.0000   0.0000   0.0000   0.0000

          k =-1.1218-0.3750-0.3750 (   255 PWs)   bands (ev):

    -2.7627  -0.3717   2.1880   4.3720   8.1295  11.8524  11.8921  13.3471
    14.3687  14.4115  18.9521  21.4951  21.5303  22.5334  22.9049  25.0243
    25.9496  26.4588  28.3597  28.7301  31.3272  31.7261  32.4874  32.9924
    34.2140  35.0616  36.0385  36.6397  40.0457  40.9291  41.6506  42.4961

     occupation numbers 
     1.0000   1.0000   1.0000   1.0000   0.0000   0.0000   0.0000   0.0000
     0.0000   0.0000   0.0000   0.0000   0.0000   0.0000   0.0000   0.0000
     0.0000   0.0000   0.0000   0.0000   0.0000   0.0000   0.0000   0.0000
     0.0000   0.0000   0.0000   0.0000   0.0000   0.0000   0.0000   0.0000

          k =-1.1218 0.3750 0.3750 (   255 PWs)   bands (ev):

    -2.7627  -0.3717   2.1880   4.3720   8.1295  11.8524  11.8921  13.3471
    14.3687  14.4115  18.9521  21.4951  21.5303  22.5334  22.9049  25.0243
    25.9496  26.4588  28.3597  28.7301  31.3272  31.7261  32.4874  32.9924
    34.2140  35.0616  36.0385  36.6397  40.0457  40.9291  41.6506  42.4961

     occupation numbers 
     1.0000   1.0000   1.0000   1.0000   0.0000   0.0000   0.0000   0.0000
     0.0000   0.0000   0.0000   0.0000   0.0000   0.0000   0.0000   0.0000
     0.0000   0.0000   0.0000   0.0000   0.0000   0.0000   0.0000   0.0000
     0.0000   0.0000   0.0000   0.0000   0.0000   0.0000   0.0000   0.0000

          k =-0.3718 0.3750-1.1250 (   255 PWs)   bands (ev):

    -2.7558  -0.3859   2.1994   4.3668   8.1249  11.8312  11.8960  13.3166
    14.3984  14.4667  18.9318  21.4295  21.5134  22.5748  22.9406  25.0446
    25.9847  26.4378  28.3454  28.6740  31.3577  31.7392  32.5161  32.9162
    34.2211  35.1086  36.0398  36.6544  39.9740  40.9180  41.6340  42.5091

     occupation numbers 
     1.0000   1.0000   1.0000   1.0000   0.0000   0.0000   0.0000   0.0000
     0.0000   0.0000   0.0000   0.0000   0.0000   0.0000   0.0000   0.0000
     0.0000   0.0000   0.0000   0.0000   0.0000   0.0000   0.0000   0.0000
     0.0000   0.0000   0.0000   0.0000   0.0000   0.0000   0.0000   0.0000

          k = 0.3782-0.3750-1.1250 (   255 PWs)   bands (ev):

    -2.7752  -0.3713   2.2117   4.3815   8.1419  11.8027  11.8646  13.3816
    14.3696  14.4360  18.8982  21.4583  21.5280  22.5077  22.9011  25.0852
    25.9796  26.4692  28.3479  28.7281  31.3618  31.7845  32.4842  32.9862
    34.1872  35.0403  36.0388  36.7193  39.9877  40.9138  41.6591  42.5210

     occupation numbers 
     1.0000   1.0000   1.0000   1.0000   0.0000   0.0000   0.0000   0.0000
     0.0000   0.0000   0.0000   0.0000   0.0000   0.0000   0.0000   0.0000
     0.0000   0.0000   0.0000   0.0000   0.0000   0.0000   0.0000   0.0000
     0.0000   0.0000   0.0000   0.0000   0.0000   0.0000   0.0000   0.0000

          k = 0.3782 0.3750 1.1250 (   255 PWs)   bands (ev):

    -2.7752  -0.3713   2.2117   4.3815   8.1419  11.8027  11.8646  13.3816
    14.3696  14.4360  18.8982  21.4583  21.5280  22.5077  22.9011  25.0852
    25.9796  26.4692  28.3479  28.7281  31.3618  31.7845  32.4842  32.9862
    34.1872  35.0403  36.0388  36.7193  39.9877  40.9138  41.6591  42.5210

     occupation numbers 
     1.0000   1.0000   1.0000   1.0000   0.0000   0.0000   0.0000   0.0000
     0.0000   0.0000   0.0000   0.0000   0.0000   0.0000   0.0000   0.0000
     0.0000   0.0000   0.0000   0.0000   0.0000   0.0000   0.0000   0.0000
     0.0000   0.0000   0.0000   0.0000   0.0000   0.0000   0.0000   0.0000

          k =-0.3718-0.3750 1.1250 (   255 PWs)   bands (ev):

    -2.7558  -0.3859   2.1994   4.3668   8.1249  11.8312  11.8960  13.3166
    14.3984  14.4667  18.9318  21.4295  21.5134  22.5748  22.9406  25.0446
    25.9847  26.4378  28.3454  28.6740  31.3577  31.7392  32.5161  32.9162
    34.2211  35.1086  36.0398  36.6544  39.9740  40.9180  41.6340  42.5091

     occupation numbers 
     1.0000   1.0000   1.0000   1.0000   0.0000   0.0000   0.0000   0.0000
     0.0000   0.0000   0.0000   0.0000   0.0000   0.0000   0.0000   0.0000
     0.0000   0.0000   0.0000   0.0000   0.0000   0.0000   0.0000   0.0000
     0.0000   0.0000   0.0000   0.0000   0.0000   0.0000   0.0000   0.0000

          k = 0.3782-1.1250-0.3750 (   255 PWs)   bands (ev):

    -2.7752  -0.3713   2.2117   4.3815   8.1419  11.8027  11.8646  13.3816
    14.3696  14.4360  18.8982  21.4583  21.5280  22.5077  22.9011  25.0852
    25.9796  26.4692  28.3479  28.7281  31.3618  31.7845  32.4842  32.9862
    34.1872  35.0403  36.0388  36.7193  39.9877  40.9138  41.6591  42.5210

     occupation numbers 
     1.0000   1.0000   1.0000   1.0000   0.0000   0.0000   0.0000   0.0000
     0.0000   0.0000   0.0000   0.0000   0.0000   0.0000   0.0000   0.0000
     0.0000   0.0000   0.0000   0.0000   0.0000   0.0000   0.0000   0.0000
     0.0000   0.0000   0.0000   0.0000   0.0000   0.0000   0.0000   0.0000

          k =-0.3718-1.1250 0.3750 (   255 PWs)   bands (ev):

    -2.7558  -0.3859   2.1994   4.3668   8.1249  11.8312  11.8960  13.3166
    14.3984  14.4667  18.9318  21.4295  21.5134  22.5748  22.9406  25.0446
    25.9847  26.4378  28.3454  28.6740  31.3577  31.7392  32.5161  32.9162
    34.2211  35.1086  36.0398  36.6544  39.9740  40.9180  41.6340  42.5091

     occupation numbers 
     1.0000   1.0000   1.0000   1.0000   0.0000   0.0000   0.0000   0.0000
     0.0000   0.0000   0.0000   0.0000   0.0000   0.0000   0.0000   0.0000
     0.0000   0.0000   0.0000   0.0000   0.0000   0.0000   0.0000   0.0000
     0.0000   0.0000   0.0000   0.0000   0.0000   0.0000   0.0000   0.0000

          k = 0.3782 1.1250 0.3750 (   255 PWs)   bands (ev):

    -2.7752  -0.3713   2.2117   4.3815   8.1419  11.8027  11.8646  13.3816
    14.3696  14.4360  18.8982  21.4583  21.5280  22.5077  22.9011  25.0852
    25.9796  26.4692  28.3479  28.7281  31.3618  31.7845  32.4842  32.9862
    34.1872  35.0403  36.0388  36.7193  39.9877  40.9138  41.6591  42.5210

     occupation numbers 
     1.0000   1.0000   1.0000   1.0000   0.0000   0.0000   0.0000   0.0000
     0.0000   0.0000   0.0000   0.0000   0.0000   0.0000   0.0000   0.0000
     0.0000   0.0000   0.0000   0.0000   0.0000   0.0000   0.0000   0.0000
     0.0000   0.0000   0.0000   0.0000   0.0000   0.0000   0.0000   0.0000

          k =-0.3718 1.1250-0.3750 (   255 PWs)   bands (ev):

    -2.7558  -0.3859   2.1994   4.3668   8.1249  11.8312  11.8960  13.3166
    14.3984  14.4667  18.9318  21.4295  21.5134  22.5748  22.9406  25.0446
    25.9847  26.4378  28.3454  28.6740  31.3577  31.7392  32.5161  32.9162
    34.2211  35.1086  36.0398  36.6544  39.9740  40.9180  41.6340  42.5091

     occupation numbers 
     1.0000   1.0000   1.0000   1.0000   0.0000   0.0000   0.0000   0.0000
     0.0000   0.0000   0.0000   0.0000   0.0000   0.0000   0.0000   0.0000
     0.0000   0.0000   0.0000   0.0000   0.0000   0.0000   0.0000   0.0000
     0.0000   0.0000   0.0000   0.0000   0.0000   0.0000   0.0000   0.0000

          k =-1.1218-0.3750 0.3750 (   255 PWs)   bands (ev):

    -2.7627  -0.3717   2.1880   4.3720   8.1295  11.8524  11.8921  13.3471
    14.3687  14.4115  18.9521  21.4951  21.5303  22.5334  22.9049  25.0243
    25.9496  26.4588  28.3597  28.7301  31.3272  31.7261  32.4874  32.9924
    34.2140  35.0616  36.0385  36.6397  40.0457  40.9291  41.6506  42.4961

     occupation numbers 
     1.0000   1.0000   1.0000   1.0000   0.0000   0.0000   0.0000   0.0000
     0.0000   0.0000   0.0000   0.0000   0.0000   0.0000   0.0000   0.0000
     0.0000   0.0000   0.0000   0.0000   0.0000   0.0000   0.0000   0.0000
     0.0000   0.0000   0.0000   0.0000   0.0000   0.0000   0.0000   0.0000

          k =-1.1218 0.3750-0.3750 (   255 PWs)   bands (ev):

    -2.7627  -0.3717   2.1880   4.3720   8.1295  11.8524  11.8921  13.3471
    14.3687  14.4115  18.9521  21.4951  21.5303  22.5334  22.9049  25.0243
    25.9496  26.4588  28.3597  28.7301  31.3272  31.7261  32.4874  32.9924
    34.2140  35.0616  36.0385  36.6397  40.0457  40.9291  41.6506  42.4961

     occupation numbers 
     1.0000   1.0000   1.0000   1.0000   0.0000   0.0000   0.0000   0.0000
     0.0000   0.0000   0.0000   0.0000   0.0000   0.0000   0.0000   0.0000
     0.0000   0.0000   0.0000   0.0000   0.0000   0.0000   0.0000   0.0000
     0.0000   0.0000   0.0000   0.0000   0.0000   0.0000   0.0000   0.0000

          k = 1.1282 0.3750 0.3750 (   255 PWs)   bands (ev):

    -2.7684  -0.3857   2.2233   4.3767   8.1369  11.7986  11.8514  13.3513
    14.4222  14.4680  18.8781  21.4075  21.4950  22.5456  22.9410  25.1063
    26.0169  26.4456  28.3349  28.6710  31.3954  31.7969  32.5112  32.9101
    34.1951  35.0872  36.0384  36.7338  39.9156  40.9064  41.6424  42.5332

     occupation numbers 
     1.0000   1.0000   1.0000   1.0000   0.0000   0.0000   0.0000   0.0000
     0.0000   0.0000   0.0000   0.0000   0.0000   0.0000   0.0000   0.0000
     0.0000   0.0000   0.0000   0.0000   0.0000   0.0000   0.0000   0.0000
     0.0000   0.0000   0.0000   0.0000   0.0000   0.0000   0.0000   0.0000

          k = 1.1282-0.3750-0.3750 (   255 PWs)   bands (ev):

    -2.7684  -0.3857   2.2233   4.3767   8.1369  11.7986  11.8514  13.3513
    14.4222  14.4680  18.8781  21.4075  21.4950  22.5456  22.9410  25.1063
    26.0169  26.4456  28.3349  28.6710  31.3954  31.7969  32.5112  32.9101
    34.1951  35.0872  36.0384  36.7338  39.9156  40.9064  41.6424  42.5332

     occupation numbers 
     1.0000   1.0000   1.0000   1.0000   0.0000   0.0000   0.0000   0.0000
     0.0000   0.0000   0.0000   0.0000   0.0000   0.0000   0.0000   0.0000
     0.0000   0.0000   0.0000   0.0000   0.0000   0.0000   0.0000   0.0000
     0.0000   0.0000   0.0000   0.0000   0.0000   0.0000   0.0000   0.0000

     highest occupied, lowest unoccupied level (ev):     6.0234    7.1405

     Writing all to output data dir ./Si_shift2_bse_nscf.save/

     init_run     :      0.01s CPU      0.01s WALL (       1 calls)
     electrons    :     26.92s CPU     27.33s WALL (       1 calls)

     Called by init_run:
     wfcinit      :      0.00s CPU      0.00s WALL (       1 calls)
     wfcinit:atom :      0.01s CPU      0.01s WALL (     256 calls)
     wfcinit:wfcr :      0.96s CPU      0.98s WALL (     256 calls)
     potinit      :      0.00s CPU      0.00s WALL (       1 calls)
     hinit0       :      0.01s CPU      0.01s WALL (       1 calls)

     Called by electrons:
     c_bands      :     26.91s CPU     27.32s WALL (       1 calls)
     v_of_rho     :      0.00s CPU      0.00s WALL (       1 calls)
     v_h          :      0.00s CPU      0.00s WALL (       1 calls)
     v_xc         :      0.00s CPU      0.00s WALL (       1 calls)

     Called by c_bands:
     init_us_2    :      0.01s CPU      0.01s WALL (     256 calls)
     init_us_2:cp :      0.01s CPU      0.01s WALL (     256 calls)
     cegterg      :     25.84s CPU     26.22s WALL (     517 calls)

     Called by sum_band:

     Called by *egterg:
     cdiaghg      :      7.95s CPU      8.06s WALL (    8299 calls)
     cegterg:over :      0.84s CPU      0.86s WALL (    8043 calls)
     cegterg:upda :      0.63s CPU      0.64s WALL (    8043 calls)
     cegterg:last :      0.93s CPU      0.94s WALL (    4611 calls)
     h_psi        :     16.12s CPU     16.37s WALL (    8816 calls)
     g_psi        :      0.10s CPU      0.10s WALL (    8043 calls)

     Called by h_psi:
     h_psi:calbec :      0.12s CPU      0.14s WALL (    8816 calls)
     vloc_psi     :     15.83s CPU     16.05s WALL (    8816 calls)
     add_vuspsi   :      0.10s CPU      0.10s WALL (    8816 calls)

     General routines
     calbec       :      0.11s CPU      0.14s WALL (    8816 calls)
     fft          :      0.00s CPU      0.00s WALL (       3 calls)
     fftw         :     14.57s CPU     14.78s WALL (  307874 calls)
     davcio       :      0.02s CPU      0.02s WALL (     512 calls)

     Parallel routines

     PWSCF        :     27.09s CPU     27.52s WALL


   This run was terminated on:   0:47:50   1Apr2024            

=------------------------------------------------------------------------------=
   JOB DONE.
=------------------------------------------------------------------------------=
