  ABINIT 
  
  Give name for formatted input file: 
input/01_scf.in
  Give name for formatted output file:
output/hbn_scf.out
  Give root name for generic input files:
io_dir/hbn_scf_in
  Give root name for generic output files:
io_dir/hbn_scf_out
  Give root name for generic temporary files:
io_dir/hbn_scf_tmp

 herald :  WARNING -
  The starting date is more than 2 years after the initial release
  of this version of ABINIT, namely Aug 2013.
  Note that the use beyond 3 years after the release will not be supported.
  Action : please, switch to a more recent version of ABINIT.


.Version 7.4.1 of ABINIT 
.(MPI version, prepared for a x86_64_linux_gnu4.8 computer) 

.Copyright (C) 1998-2013 ABINIT group . 
 ABINIT comes with ABSOLUTELY NO WARRANTY.
 It is free software, and you are welcome to redistribute it
 under certain conditions (GNU General Public License,
 see ~abinit/COPYING or http://www.gnu.org/copyleft/gpl.txt).

 ABINIT is a project of the Universite Catholique de Louvain,
 Corning Inc. and other collaborators, see ~abinit/doc/developers/contributors.txt .
 Please read ~abinit/doc/users/acknowledgments.html for suggested
 acknowledgments of the ABINIT effort.
 For more information, see http://www.abinit.org .

.Starting date : Thu 19 Nov 2015.
- ( at 23h19 )
  

 herald :  WARNING -
  The starting date is more than 2 years after the initial release
  of this version of ABINIT, namely Aug 2013.
  Note that the use beyond 3 years after the release will not be supported.
  Action : please, switch to a more recent version of ABINIT.


 ++++++++++++++++++++++++++++++++++++++++++++++++++++++++++++++++++++++++++++++

 === Build Information === 
  Version       : 7.4.1
  Build target  : x86_64_linux_gnu4.8
  Build date    : 20150508

 === Compiler Suite === 
  C compiler       : gnu4.8
  CFLAGS           :  -g -O2 -mtune=native -march=native
  C++ compiler     : gnu4.8
  CXXFLAGS         :  -g -O2 -mtune=native -march=native
  Fortran compiler : gnu4.8
  FCFLAGS          :  -g -ffree-line-length-none
  FC_LDFLAGS       : 

 === Optimizations === 
  Debug level        : basic
  Optimization level : standard
  Architecture       : unknown_unknown

 === MPI === 
  Parallel build : yes
  Parallel I/O   : auto
  Time tracing   : no
  GPU support    : no

 === Connectors / Fallbacks === 
  Connectors on : yes
  Fallbacks on  : yes
  DFT flavor    : none
  FFT flavor    : none
  LINALG flavor : netlib
  MATH flavor   : none
  TIMER flavor  : abinit
  TRIO flavor   : none

 === Experimental features === 
  Bindings            : no
  Exports             : no
  GW double-precision : no

 ++++++++++++++++++++++++++++++++++++++++++++++++++++++++++++++++++++++++++++++


 ++++++++++++++++++++++++++++++++++++++++++++++++++++++++++++++++++++++++++++++
 Default optimizations:
   -O2 -mtune=native -march=native


 ++++++++++++++++++++++++++++++++++++++++++++++++++++++++++++++++++++++++++++++


 ++++++++++++++++++++++++++++++++++++++++++++++++++++++++++++++++++++++++++++++
 CPP options activated during the build:

                    CC_GNU                    FC_GNU HAVE_FC_ALLOCATABLE_DT...

      HAVE_FC_COMMAND_LINE        HAVE_FC_CONTIGUOUS           HAVE_FC_CPUTIME

              HAVE_FC_EXIT             HAVE_FC_FLUSH             HAVE_FC_GAMMA

            HAVE_FC_GETENV          HAVE_FC_INT_QUAD             HAVE_FC_IOMSG

     HAVE_FC_ISO_C_BINDING        HAVE_FC_LONG_LINES              HAVE_FC_NULL

         HAVE_FC_STREAM_IO          HAVE_FORTRAN2003               HAVE_LINALG

        HAVE_LINALG_SERIAL                  HAVE_MPI                 HAVE_MPI2

               HAVE_MPI_IO HAVE_MPI_TYPE_CREATE_S...             HAVE_OS_LINUX

                HAVE_TIMER         HAVE_TIMER_ABINIT            HAVE_TIMER_MPI

         HAVE_TIMER_SERIAL
 ++++++++++++++++++++++++++++++++++++++++++++++++++++++++++++++++++++++++++++++

- input  file    -> input/01_scf.in
- output file    -> output/hbn_scf.out
- root for input  files -> io_dir/hbn_scf_in
- root for output files -> io_dir/hbn_scf_out

-instrng :    40 lines of input have been read from file input/01_scf.in


 iofn2 : Please give name of formatted atomic psp file
 iofn2 : for atom type   1 , psp file is psp/5b.pspnc

 iofn2 : Please give name of formatted atomic psp file
 iofn2 : for atom type   2 , psp file is psp/7n.pspnc
  read the values zionpsp=  3.0 , pspcod=   1 , lmax=   1
  read the values zionpsp=  5.0 , pspcod=   1 , lmax=   1

 inpspheads : deduce mpsang  =   2, n1xccc  =2501.

 invars1m : enter jdtset=     0
 invars1 : treat image number     1

 symlatt : the Bravais lattice is hP (primitive hexagonal)
  xcart  is defined in input file
 ingeo : takes atomic coordinates from input array xcart

 symlatt : the Bravais lattice is hP (primitive hexagonal)

 symlatt : the Bravais lattice is hP (primitive hexagonal)
 symspgr : the symmetry operation no.   1 is the identity
 symspgr : the symmetry operation no.   2 is an inversion
 symplanes : the symmetry operation no.   3 is a tertiary c plane
 symaxes : the symmetry operation no.   4 is a tertiary 2-axis
 symaxes : the symmetry operation no.   5 is a 6_3-axis
 symspgr : the symmetry operation no.   6 is a -6 axis
 symplanes : the symmetry operation no.   7 is a secondary m plane
 symaxes : the symmetry operation no.   8 is a secondary 2-axis
 symaxes : the symmetry operation no.   9 is a 3-axis
 symspgr : the symmetry operation no.  10 is a -3 axis
 symplanes : the symmetry operation no.  11 is a tertiary c plane
 symaxes : the symmetry operation no.  12 is a tertiary 2-axis
 symaxes : the symmetry operation no.  13 is a 2_1-axis
 symplanes : the symmetry operation no.  14 is a primary m plane
 symplanes : the symmetry operation no.  15 is a secondary m plane
 symaxes : the symmetry operation no.  16 is a secondary 2-axis
 symaxes : the symmetry operation no.  17 is a 3-axis
 symspgr : the symmetry operation no.  18 is a -3 axis
 symplanes : the symmetry operation no.  19 is a tertiary c plane
 symaxes : the symmetry operation no.  20 is a tertiary 2-axis
 symaxes : the symmetry operation no.  21 is a 6_3-axis
 symspgr : the symmetry operation no.  22 is a -6 axis
 symplanes : the symmetry operation no.  23 is a secondary m plane
 symaxes : the symmetry operation no.  24 is a secondary 2-axis
 symspgr : spgroup= 194  P6_3/m m c   (=D6h^4)
 getkgrid : length of smallest supercell vector (bohr)=    1.886549E+01
       Simple Lattice Grid
 symkpt : found identity, with number  1
 getkgrid : length of smallest supercell vector (bohr)=    1.886549E+01
       Simple Lattice Grid
 symkpt : found identity, with number  1
  dtset%nelect=   16.000000000000000     
 chkneu : initialized the occupation numbers for occopt=    1
    spin-unpolarized case :
  2.00  2.00  2.00  2.00  2.00  2.00  2.00  2.00  0.00  0.00
  mpi_setup : enter 
 mpi_setup1: mkmem  undefined in the input file. Use default mkmem  = nkpt
 mpi_setup1: With nkpt_me=   12 and mkmem  =    12, ground state wf handled in core.
 mpi_setup1: mkqmem undefined in the input file. Use default mkqmem = nkpt
 mpi_setup1: With nkpt_me=   12 and mkqmem =    12, ground state wf handled in core.
 mpi_setup1: mk1mem undefined in the input file. Use default mk1mem = nkpt
 mpi_setup1: With nkpt_me=   12 and mk1mem =    12, ground state wf handled in core.

 getng.F90:200:WARNING
   The second and third dimension of the FFT grid,    0    0  were imposed to be multiple of the number of processors for the FFT,    1
 For input ecut=  4.000000E+01 best grid ngfft=      30      30      72
       max ecut=  4.313970E+01

 ==== FFT mesh ====
  FFT mesh divisions ........................    30   30   72
  Augmented FFT divisions ...................    31   31   72
  FFT algorithm .............................   112
  FFT cache size ............................    16
 getmpw: optimal value of mpw=    2849

 Symmetries : space group P6_3/m m c (#194); Bravais hP (primitive hexag.)

 getdim_nloc : deduce lmnmax  =   1, lnmax  =   1,
                      lmnmaxso=   1, lnmaxso=   1.
 setmqgrid : COMMENT -
  The number of points "mqgrid" in reciprocal space used for the
  description of the pseudopotentials has been set automatically
  by abinit to :     3467.
 memory : analysis of memory needs
================================================================================
 Values of the parameters that define the memory need of the present run
   intxc =         0  ionmov =         0    iscf =         7 xclevel =         1
  lmnmax =         1   lnmax =         1   mband =        10  mffmem =         1
P  mgfft =        72   mkmem =        12 mpssoang=         2     mpw =      2849
  mqgrid =      3467   natom =         4    nfft =     64800    nkpt =        12
  nloalg =         4  nspden =         1 nspinor =         1  nsppol =         1
    nsym =        12  n1xccc =      2501  ntypat =         2  occopt =         1
================================================================================
P This job should need less than                      25.218 Mbytes of memory.
  Rough estimation (10% accuracy) of disk space for files :
_ WF disk file :      5.219 Mbytes ; DEN or POT disk file :      0.496 Mbytes.
================================================================================

 Biggest array : f_fftgr(disk), with      7.9122 MBytes.
 memana : allocated an array of      7.912 Mbytes, for testing purposes.
 memana : allocated      25.218 Mbytes, for testing purposes.
 The job will continue.
--------------------------------------------------------------------------------
------------- Echo of variables that govern the present computation ------------
--------------------------------------------------------------------------------
-
- outvars: echo of selected default values                                      
-   accesswff0 =  0 , fftalg0 =112 , wfoptalg0 =  0
-
- outvars: echo of global parameters not present in the input file              
-  max_nthreads =    0
-
 -outvars: echo values of preprocessed input variables --------
            acell      4.7163728000E+00  4.7163728000E+00  1.2175836200E+01 Bohr
              amu      1.08110000E+01  1.40067400E+01
           diemac      4.50000000E+00
             ecut      4.00000000E+01 Hartree
           istwfk        2    0    3    0    0    0    0    0    4    0
                         5    0
              kpt      0.00000000E+00  0.00000000E+00  0.00000000E+00
                       2.50000000E-01  0.00000000E+00  0.00000000E+00
                       5.00000000E-01  0.00000000E+00  0.00000000E+00
                       2.50000000E-01  2.50000000E-01  0.00000000E+00
                       0.00000000E+00  0.00000000E+00  2.50000000E-01
                       2.50000000E-01  0.00000000E+00  2.50000000E-01
                       5.00000000E-01  0.00000000E+00  2.50000000E-01
                       2.50000000E-01  2.50000000E-01  2.50000000E-01
                       0.00000000E+00  0.00000000E+00  5.00000000E-01
                       2.50000000E-01  0.00000000E+00  5.00000000E-01
                       5.00000000E-01  0.00000000E+00  5.00000000E-01
                       2.50000000E-01  2.50000000E-01  5.00000000E-01
         kptrlatt        4    0    0      0    4    0      0    0    4
          kptrlen      1.88654912E+01
P           mkmem          12
            natom           4
            nband          10
            ngfft          30      30      72
             nkpt          12
            nstep         100
             nsym          12
           ntypat           2
              occ      2.000000  2.000000  2.000000  2.000000  2.000000  2.000000
                       2.000000  2.000000  0.000000  0.000000
            rprim      1.0000000000E+00  0.0000000000E+00  0.0000000000E+00
                      -5.0000000000E-01  8.6602540378E-01  0.0000000000E+00
                       0.0000000000E+00  0.0000000000E+00  1.0000000000E+00
          spgroup         194
        symmorphi           0
           symrel      1  0  0   0  1  0   0  0  1       0 -1  0  -1  0  0   0  0 -1
                      -1 -1  0   1  0  0   0  0 -1      -1  0  0   1  1  0   0  0  1
                       0  1  0  -1 -1  0   0  0  1       1  1  0   0 -1  0   0  0 -1
                       1  0  0   0  1  0   0  0 -1       0 -1  0  -1  0  0   0  0  1
                      -1 -1  0   1  0  0   0  0  1      -1  0  0   1  1  0   0  0 -1
                       0  1  0  -1 -1  0   0  0 -1       1  1  0   0 -1  0   0  0  1
            tnons      0.0000000  0.0000000  0.0000000    -0.0000000 -0.0000000  0.0000000
                       0.0000000 -0.0000000  0.0000000     0.0000000  0.0000000  0.0000000
                      -0.0000000 -0.0000000  0.0000000     0.0000000 -0.0000000  0.0000000
                       0.0000000  0.0000000  0.0000000    -0.0000000 -0.0000000  0.0000000
                       0.0000000 -0.0000000  0.0000000     0.0000000  0.0000000  0.0000000
                      -0.0000000 -0.0000000  0.0000000     0.0000000 -0.0000000  0.0000000
           toldfe      1.00000000E-10 Hartree
            typat      1  2  1  2
              wtk        0.01563    0.09375    0.04688    0.09375    0.03125    0.18750
                         0.09375    0.18750    0.01563    0.09375    0.04688    0.09375
           xangst      1.2478984965E+00  7.2047453285E-01  0.0000000000E+00
                      -1.2478984965E+00 -7.2047453285E-01  0.0000000000E+00
                      -1.2478984965E+00 -7.2047453285E-01  3.2215875063E+00
                       1.2478984965E+00  7.2047453285E-01  3.2215875063E+00
            xcart      2.3581864000E+00  1.3614995528E+00  0.0000000000E+00
                      -2.3581864000E+00 -1.3614995528E+00  0.0000000000E+00
                      -2.3581864000E+00 -1.3614995528E+00  6.0879181000E+00
                       2.3581864000E+00  1.3614995528E+00  6.0879181000E+00
             xred      6.6666666666E-01  3.3333333333E-01  0.0000000000E+00
                      -6.6666666666E-01 -3.3333333333E-01  0.0000000000E+00
                      -6.6666666666E-01 -3.3333333333E-01  5.0000000000E-01
                       6.6666666666E-01  3.3333333333E-01  5.0000000000E-01
            znucl        5.00000    7.00000

================================================================================

 chkinp: machine precision is   2.2204460492503131E-16

 chkinp: Checking input parameters for consistency.
 DATA TYPE INFORMATION: 
 REAL:      Data type name: REAL(DP) 
            Kind value:      8
            Precision:      15
            Smallest nonnegligible quantity relative to 1:  0.22204460E-15
            Smallest positive number:                       0.22250739-307
            Largest representable number:                   0.17976931+309
 INTEGER:   Data type name: INTEGER(default) 
            Kind value: 4
            Bit size:   32
            Largest representable number: 2147483647
 LOGICAL:   Data type name: LOGICAL 
            Kind value: 4
 CHARACTER: Data type name: CHARACTER             Kind value: 1
 ==== OpenMP parallelism is OFF ====
 
  ==== Using MPI-2 specifications ==== 
  MPI-IO support is ON
  xmpi_tag_ub ................   2147483647
  xmpi_bsize_ch ..............            1
  xmpi_bsize_int .............            4
  xmpi_bsize_sp ..............            4
  xmpi_bsize_dp ..............            8
  xmpi_bsize_spc .............            8
  xmpi_bsize_dpc .............           16
  xmpio_bsize_frm ............            4
  xmpi_address_kind ..........            8
  xmpi_offset_kind ...........            8
  MPI_WTICK ..................    9.9999999999999995E-007

================================================================================
== DATASET  1 ==================================================================
-   nproc =    1

 setmqgrid : COMMENT -
  The number of points "mqgrid" in reciprocal space used for the
  description of the pseudopotentials has been set automatically
  by abinit to :     3467.

 getdim_nloc : deduce lmnmax  =   1, lnmax  =   1,
                      lmnmaxso=   1, lnmaxso=   1.
 Exchange-correlation functional for the present dataset will be:
  LDA: new Teter (4/93) with spin-polarized option - ixc=1
 Citation for XC functional:
  S. Goedecker, M. Teter, J. Huetter, PRB 54, 1703 (1996)

 Unit cell volume ucvol=  2.3455553E+02 bohr^3
 Angles (23,13,12)=  9.00000000E+01  9.00000000E+01  1.20000000E+02 degrees

 getcut: wavevector=  0.0000  0.0000  0.0000  ngfft=  30  30  72
         ecut(hartree)=     40.000   => boxcut(ratio)=   2.07701
- pspini: atom type   1  psp file is psp/5b.pspnc
- pspatm: opening atomic psp file    psp/5b.pspnc
-  Troullier-Martins psp for element  B         Thu Oct 27 17:29:24 EDT 1994
-  5.00000   3.00000    940714                znucl, zion, pspdat
    1    1    1    1      2001   0.00000      pspcod,pspxc,lmax,lloc,mmax,r2well
    0   8.313  21.401    1   1.5924135        l,e99.0,e99.9,nproj,rcpsp
   0.00000000   0.00000000   0.00000000   0.00000000     rms, ekb1, ekb2, epsatm
    1  11.531  17.234    0   1.5924135        l,e99.0,e99.9,nproj,rcpsp
   0.00000000   0.00000000   0.00000000   0.00000000     rms, ekb1, ekb2, epsatm
    1.10004537463277    0.35216853368804    0.40909985967175   rchrg,fchrg,qchrg
 pspatm: epsatm=    0.59609267
         --- l  ekb(1:nproj) -->
             0    3.906219
 pspatm: atomic psp has been read  and splines computed

- pspini: atom type   2  psp file is psp/7n.pspnc
- pspatm: opening atomic psp file    psp/7n.pspnc
-  Troullier-Martins psp for element  N         Thu Oct 27 17:29:45 EDT 1994
-  7.00000   5.00000    940714                znucl, zion, pspdat
    1    1    1    1      2001   0.00000      pspcod,pspxc,lmax,lloc,mmax,r2well
    0   9.676  16.205    1   1.4975844        l,e99.0,e99.9,nproj,rcpsp
   0.00000000   0.00000000   0.00000000   0.00000000     rms, ekb1, ekb2, epsatm
    1  17.792  24.348    0   1.4975844        l,e99.0,e99.9,nproj,rcpsp
   0.00000000   0.00000000   0.00000000   0.00000000     rms, ekb1, ekb2, epsatm
    0.67622446232424    2.19275283188720    0.59171052714445   rchrg,fchrg,qchrg
 pspatm: epsatm=    1.31070843
         --- l  ekb(1:nproj) -->
             0    5.141679
 pspatm: atomic psp has been read  and splines computed

   6.10176352E+01                                ecore*ucvol(ha*bohr**3)
   1  1  1  1  1  1  1  1  1  1  1  1
   2  2  2  2  2  2  2  2  2  2  2  2
   3  3  3  3  3  3  3  3  3  3  3  3
   4  4  4  4  4  4  4  4  4  4  4  4
 wfconv:    10 bands initialized randomly with npw=  1416, for ikpt=     1
 wfconv:    10 bands initialized randomly with npw=  2820, for ikpt=     2
 wfconv:    10 bands initialized randomly with npw=  1417, for ikpt=     3
 wfconv:    10 bands initialized randomly with npw=  2825, for ikpt=     4
 wfconv:    10 bands initialized randomly with npw=  2849, for ikpt=     5
 wfconv:    10 bands initialized randomly with npw=  2830, for ikpt=     6
 wfconv:    10 bands initialized randomly with npw=  2840, for ikpt=     7
 wfconv:    10 bands initialized randomly with npw=  2840, for ikpt=     8
 wfconv:    10 bands initialized randomly with npw=  1427, for ikpt=     9
 wfconv:    10 bands initialized randomly with npw=  2820, for ikpt=    10
 wfconv:    10 bands initialized randomly with npw=  1420, for ikpt=    11
 wfconv:    10 bands initialized randomly with npw=  2828, for ikpt=    12

_setup2: Arith. and geom. avg. npw (full set) are    2831.922    2831.909
 initro : for itypat=  1, take decay length=      1.0000,
 initro : indeed, coreel=      2.0000, nval=  3 and densty=  0.0000E+00.
 initro : for itypat=  2, take decay length=      0.6000,
 initro : indeed, coreel=      2.0000, nval=  5 and densty=  0.0000E+00.

================================================================================

 getcut: wavevector=  0.0000  0.0000  0.0000  ngfft=  30  30  72
         ecut(hartree)=     40.000   => boxcut(ratio)=   2.07701

 ewald : nr and ng are    3 and   32

 ITER STEP NUMBER     1
 vtorho : nnsclo_now=  2, note that nnsclo,dbl_nnsclo,istep=  0 0  1
 Total charge density [el/Bohr^3]
,     Maximum=    6.7283E-01  at reduced coord.    0.8000    0.4000    0.5000
,     Minimum=    1.4753E-03  at reduced coord.    0.0000    0.0000    0.2500
,  Integrated=    1.6000E+01
 ETOT  1  -26.950299162252    -2.695E+01 1.332E-01 1.105E+03
 scprqt: <Vxc>= -3.8134099E-01 hartree

Simple mixing update:
  residual square of the potential :   552.75572101617297

 ITER STEP NUMBER     2
 vtorho : nnsclo_now=  2, note that nnsclo,dbl_nnsclo,istep=  0 0  2
 Total charge density [el/Bohr^3]
,     Maximum=    5.1137E-01  at reduced coord.    0.4000    0.8000    0.0000
,     Minimum=    3.2548E-03  at reduced coord.    0.0000    0.0000    0.2500
,  Integrated=    1.6000E+01
 ETOT  2  -27.010223716025    -5.992E-02 3.380E-03 3.686E+02
 scprqt: <Vxc>= -4.0497948E-01 hartree

 Pulay update with  1 previous iterations:
 mixing of old trial potential : alpha(m:m-4)=  0.622      0.378

 ITER STEP NUMBER     3
 vtorho : nnsclo_now=  1, note that nnsclo,dbl_nnsclo,istep=  0 0  3
 Total charge density [el/Bohr^3]
,     Maximum=    6.0958E-01  at reduced coord.    0.8000    0.4000    0.5000
,     Minimum=    2.5238E-03  at reduced coord.    0.0000    0.0000    0.2500
,  Integrated=    1.6000E+01
 ETOT  3  -27.113512549835    -1.033E-01 9.051E-02 4.940E+01
 scprqt: <Vxc>= -3.9469175E-01 hartree

 Pulay update with  2 previous iterations:
 mixing of old trial potential : alpha(m:m-4)=  0.778      0.245     -0.227E-01

 ITER STEP NUMBER     4
 vtorho : nnsclo_now=  1, note that nnsclo,dbl_nnsclo,istep=  0 0  4
 Total charge density [el/Bohr^3]
,     Maximum=    5.8783E-01  at reduced coord.    0.4000    0.8000    0.0000
,     Minimum=    2.8132E-03  at reduced coord.    0.0000    0.0000    0.2500
,  Integrated=    1.6000E+01
 ETOT  4  -27.126769497462    -1.326E-02 5.329E-03 2.637E-01
 scprqt: <Vxc>= -3.9778265E-01 hartree

 Pulay update with  3 previous iterations:
 mixing of old trial potential : alpha(m:m-4)=   1.17     -0.144     -0.299E-01  0.210E-03

 ITER STEP NUMBER     5
 vtorho : nnsclo_now=  1, note that nnsclo,dbl_nnsclo,istep=  0 0  5
 Total charge density [el/Bohr^3]
,     Maximum=    5.8730E-01  at reduced coord.    0.8000    0.4000    0.5000
,     Minimum=    2.8357E-03  at reduced coord.    0.0000    0.0000    0.2500
,  Integrated=    1.6000E+01
 ETOT  5  -27.126806885261    -3.739E-05 2.496E-03 4.587E-02
 scprqt: <Vxc>= -3.9794252E-01 hartree

 Pulay update with  4 previous iterations:
 mixing of old trial potential : alpha(m:m-4)=  0.558      0.535     -0.751E-01 -0.176E-01 -0.505E-03

 ITER STEP NUMBER     6
 vtorho : nnsclo_now=  1, note that nnsclo,dbl_nnsclo,istep=  0 0  6
 Total charge density [el/Bohr^3]
,     Maximum=    5.8679E-01  at reduced coord.    0.4000    0.8000    0.0000
,     Minimum=    2.8372E-03  at reduced coord.    0.0000    0.0000    0.2500
,  Integrated=    1.6000E+01
 ETOT  6  -27.126815673232    -8.788E-06 2.017E-03 2.802E-03
 scprqt: <Vxc>= -3.9795049E-01 hartree

 Pulay update with  5 previous iterations:
 mixing of old trial potential : alpha(m:m-4)=  0.892      0.145     -0.452E-01  0.759E-02  0.546E-03

 ITER STEP NUMBER     7
 vtorho : nnsclo_now=  1, note that nnsclo,dbl_nnsclo,istep=  0 0  7
 Total charge density [el/Bohr^3]
,     Maximum=    5.8668E-01  at reduced coord.    0.4000    0.8000    0.0000
,     Minimum=    2.8382E-03  at reduced coord.    0.0000    0.0000    0.2500
,  Integrated=    1.6000E+01
 ETOT  7  -27.126816077798    -4.046E-07 8.241E-04 3.947E-05
 scprqt: <Vxc>= -3.9795496E-01 hartree

 Pulay update with  6 previous iterations:
 mixing of old trial potential : alpha(m:m-4)=   1.05     -0.385E-01 -0.341E-02 -0.107E-01  0.145E-02

 ITER STEP NUMBER     8
 vtorho : nnsclo_now=  1, note that nnsclo,dbl_nnsclo,istep=  0 0  8
 Total charge density [el/Bohr^3]
,     Maximum=    5.8668E-01  at reduced coord.    0.4000    0.8000    0.0000
,     Minimum=    2.8380E-03  at reduced coord.    0.0000    0.0000    0.2500
,  Integrated=    1.6000E+01
 ETOT  8  -27.126816080302    -2.504E-09 4.052E-04 4.849E-06
 scprqt: <Vxc>= -3.9795334E-01 hartree

 Pulay update with  7 previous iterations:
 mixing of old trial potential : alpha(m:m-4)=   1.54     -0.565      0.181E-01  0.525E-02  0.142E-03

 ITER STEP NUMBER     9
 vtorho : nnsclo_now=  1, note that nnsclo,dbl_nnsclo,istep=  0 0  9
 Total charge density [el/Bohr^3]
,     Maximum=    5.8668E-01  at reduced coord.    0.4000    0.8000    0.0000
,     Minimum=    2.8380E-03  at reduced coord.    0.0000    0.0000    0.2500
,  Integrated=    1.6000E+01
 ETOT  9  -27.126816080524    -2.216E-10 1.292E-04 1.340E-08
 scprqt: <Vxc>= -3.9795341E-01 hartree

 Pulay update with  7 previous iterations:
 mixing of old trial potential : alpha(m:m-4)=   1.01     -0.835E-02  0.211E-02 -0.525E-03  0.332E-03

 ITER STEP NUMBER    10
 vtorho : nnsclo_now=  1, note that nnsclo,dbl_nnsclo,istep=  0 0 10
 Total charge density [el/Bohr^3]
,     Maximum=    5.8668E-01  at reduced coord.    0.4000    0.8000    0.0000
,     Minimum=    2.8380E-03  at reduced coord.    0.0000    0.0000    0.2500
,  Integrated=    1.6000E+01
 ETOT 10  -27.126816080526    -2.341E-12 5.747E-05 3.561E-10
 scprqt: <Vxc>= -3.9795338E-01 hartree

 Pulay update with  7 previous iterations:
 mixing of old trial potential : alpha(m:m-4)=   1.01      0.218E-02 -0.133E-01  0.150E-02  0.106E-03

 ITER STEP NUMBER    11
 vtorho : nnsclo_now=  1, note that nnsclo,dbl_nnsclo,istep=  0 0 11
 Total charge density [el/Bohr^3]
,     Maximum=    5.8668E-01  at reduced coord.    0.4000    0.8000    0.0000
,     Minimum=    2.8380E-03  at reduced coord.    0.0000    0.0000    0.2500
,  Integrated=    1.6000E+01
 ETOT 11  -27.126816080526     1.954E-13 1.787E-05 3.063E-13
 scprqt: <Vxc>= -3.9795338E-01 hartree

 At SCF step   11, etot is converged : 
  for the second time, diff in etot=  1.954E-13 < toldfe=  1.000E-10
forstrnps: loop on k-points and spins done in parallel
  strhar : before mpi_comm, harstr=   2.7671319231407147E-002   2.7671319231441747E-002  0.15197553187399260        8.4650810121852888E-020  -1.7328815012965367E-020  -5.2040285552360779E-019
  strhar : after mpi_comm, harstr=   2.7671319231407147E-002   2.7671319231441747E-002  0.15197553187399260        8.4650810121852888E-020  -1.7328815012965367E-020  -5.2040285552360779E-019
  strhar : ehart,ucvol=   7.7393266978204398        234.55553228257634     

 Cartesian components of stress tensor (hartree/bohr^3)
  sigma(1 1)=  8.25013670E-06  sigma(3 2)=  0.00000000E+00
  sigma(2 2)=  8.25013671E-06  sigma(3 1)=  0.00000000E+00
  sigma(3 3)= -6.93369564E-06  sigma(2 1)=  0.00000000E+00

   1  1  1  1  1  1  1  1  1  1  1  1
   2  2  2  2  2  2  2  2  2  2  2  2
   3  3  3  3  3  3  3  3  3  3  3  3
   4  4  4  4  4  4  4  4  4  4  4  4
 ioarr: writing density data
ioarr: file name is io_dir/hbn_scf_out_DEN
ioarr: data written to disk file io_dir/hbn_scf_out_DEN
================================================================================

 ----iterations are completed or convergence reached----


 outwf: write wavefunction to file io_dir/hbn_scf_out_WFK, with accesswff -1
 leave_test : synchronization done...
 outwf with iomode: -1, cpu:     0.01, wall:     0.01

 === Gap info ===
  >>>> For spin  1
   Minimum optical gap =   4.4392 [eV], located at k-point      :   0.5000  0.0000  0.0000
   Fundamental gap     =   4.4392 [eV], Top of valence bands at :   0.5000  0.0000  0.0000
                                        Bottom of conduction at :   0.5000  0.0000  0.0000

 Cartesian components of stress tensor (hartree/bohr^3)
  sigma(1 1)=  8.25013670E-06  sigma(3 2)=  0.00000000E+00
  sigma(2 2)=  8.25013671E-06  sigma(3 1)=  0.00000000E+00
  sigma(3 3)= -6.93369564E-06  sigma(2 1)=  0.00000000E+00

-Cartesian components of stress tensor (GPa)         [Pressure= -9.3819E-02 GPa]
- sigma(1 1)=  2.42727361E-01  sigma(3 2)=  0.00000000E+00
- sigma(2 2)=  2.42727361E-01  sigma(3 1)=  0.00000000E+00
- sigma(3 3)= -2.03996334E-01  sigma(2 1)=  0.00000000E+00

== END DATASET(S) ==============================================================
================================================================================
  
 -outvars: echo values of variables after computation  --------
            acell      4.7163728000E+00  4.7163728000E+00  1.2175836200E+01 Bohr
              amu      1.08110000E+01  1.40067400E+01
           diemac      4.50000000E+00
             ecut      4.00000000E+01 Hartree
           etotal     -2.7126816081E+01
            fcart      0.0000000000E+00  0.0000000000E+00 -0.0000000000E+00
                      -2.2836576643E-28 -1.3184703673E-28 -0.0000000000E+00
                       0.0000000000E+00  0.0000000000E+00 -0.0000000000E+00
                       2.2836576643E-28  1.3184703673E-28 -0.0000000000E+00
           istwfk        2    0    3    0    0    0    0    0    4    0
                         5    0
              kpt      0.00000000E+00  0.00000000E+00  0.00000000E+00
                       2.50000000E-01  0.00000000E+00  0.00000000E+00
                       5.00000000E-01  0.00000000E+00  0.00000000E+00
                       2.50000000E-01  2.50000000E-01  0.00000000E+00
                       0.00000000E+00  0.00000000E+00  2.50000000E-01
                       2.50000000E-01  0.00000000E+00  2.50000000E-01
                       5.00000000E-01  0.00000000E+00  2.50000000E-01
                       2.50000000E-01  2.50000000E-01  2.50000000E-01
                       0.00000000E+00  0.00000000E+00  5.00000000E-01
                       2.50000000E-01  0.00000000E+00  5.00000000E-01
                       5.00000000E-01  0.00000000E+00  5.00000000E-01
                       2.50000000E-01  2.50000000E-01  5.00000000E-01
         kptrlatt        4    0    0      0    4    0      0    0    4
          kptrlen      1.88654912E+01
P           mkmem          12
            natom           4
            nband          10
            ngfft          30      30      72
             nkpt          12
            nstep         100
             nsym          12
           ntypat           2
              occ      2.000000  2.000000  2.000000  2.000000  2.000000  2.000000
                       2.000000  2.000000  0.000000  0.000000
            rprim      1.0000000000E+00  0.0000000000E+00  0.0000000000E+00
                      -5.0000000000E-01  8.6602540378E-01  0.0000000000E+00
                       0.0000000000E+00  0.0000000000E+00  1.0000000000E+00
          spgroup         194
           strten      8.2501366974E-06  8.2501367088E-06 -6.9336956411E-06
                       0.0000000000E+00  0.0000000000E+00  0.0000000000E+00
        symmorphi           0
           symrel      1  0  0   0  1  0   0  0  1       0 -1  0  -1  0  0   0  0 -1
                      -1 -1  0   1  0  0   0  0 -1      -1  0  0   1  1  0   0  0  1
                       0  1  0  -1 -1  0   0  0  1       1  1  0   0 -1  0   0  0 -1
                       1  0  0   0  1  0   0  0 -1       0 -1  0  -1  0  0   0  0  1
                      -1 -1  0   1  0  0   0  0  1      -1  0  0   1  1  0   0  0 -1
                       0  1  0  -1 -1  0   0  0 -1       1  1  0   0 -1  0   0  0  1
            tnons      0.0000000  0.0000000  0.0000000    -0.0000000 -0.0000000  0.0000000
                       0.0000000 -0.0000000  0.0000000     0.0000000  0.0000000  0.0000000
                      -0.0000000 -0.0000000  0.0000000     0.0000000 -0.0000000  0.0000000
                       0.0000000  0.0000000  0.0000000    -0.0000000 -0.0000000  0.0000000
                       0.0000000 -0.0000000  0.0000000     0.0000000  0.0000000  0.0000000
                      -0.0000000 -0.0000000  0.0000000     0.0000000 -0.0000000  0.0000000
           toldfe      1.00000000E-10 Hartree
            typat      1  2  1  2
              wtk        0.01563    0.09375    0.04688    0.09375    0.03125    0.18750
                         0.09375    0.18750    0.01563    0.09375    0.04688    0.09375
           xangst      1.2478984965E+00  7.2047453285E-01  0.0000000000E+00
                      -1.2478984965E+00 -7.2047453288E-01  0.0000000000E+00
                      -1.2478984965E+00 -7.2047453288E-01  3.2215875063E+00
                       1.2478984965E+00  7.2047453285E-01  3.2215875063E+00
            xcart      2.3581864000E+00  1.3614995528E+00  0.0000000000E+00
                      -2.3581864000E+00 -1.3614995529E+00  0.0000000000E+00
                      -2.3581864000E+00 -1.3614995529E+00  6.0879181000E+00
                       2.3581864000E+00  1.3614995528E+00  6.0879181000E+00
             xred      6.6666666666E-01  3.3333333333E-01  0.0000000000E+00
                      -6.6666666667E-01 -3.3333333334E-01  0.0000000000E+00
                      -6.6666666667E-01 -3.3333333334E-01  5.0000000000E-01
                       6.6666666666E-01  3.3333333333E-01  5.0000000000E-01
            znucl        5.00000    7.00000

================================================================================
  

================================================================================

 Suggested references for the acknowledgment of ABINIT usage.

 The users of ABINIT have little formal obligations with respect to the ABINIT group
 (those specified in the GNU General Public License, http://www.gnu.org/copyleft/gpl.txt).
 However, it is common practice in the scientific literature,
 to acknowledge the efforts of people that have made the research possible.
 In this spirit, please find below suggested citations of work written by ABINIT developers,
 corresponding to implementations inside of ABINIT that you have used in the present run.
 Note also that it will be of great value to readers of publications presenting these results,
 to read papers enabling them to understand the theoretical formalism and details
 of the ABINIT implementation.
 For information on why they are suggested, see also http://www.abinit.org/about/?text=acknowledgments.

 [1] ABINIT : First-principles approach of materials and nanosystem properties.
 X. Gonze, B. Amadon, P.-M. Anglade, J.-M. Beuken, F. Bottin, P. Boulanger, F. Bruneval,
 D. Caliste, R. Caracas, M. Cote, T. Deutsch, L. Genovese, Ph. Ghosez, M. Giantomassi
 S. Goedecker, D.R. Hamann, P. Hermet, F. Jollet, G. Jomard, S. Leroux, M. Mancini, S. Mazevet,
 M.J.T. Oliveira, G. Onida, Y. Pouillon, T. Rangel, G.-M. Rignanese, D. Sangalli, R. Shaltaf,
 M. Torrent, M.J. Verstraete, G. Zerah, J.W. Zwanziger
 Computer Phys. Comm. 180, 2582-2615 (2009).
 Comment : the third generic paper describing the ABINIT project.
 Note that a version of this paper, that is not formatted for Computer Phys. Comm. 
 is available at http://www.abinit.org/about/ABINIT_CPC_v10.pdf .
 The licence allows the authors to put it on the Web.

 [2] A brief introduction to the ABINIT software package.
 X. Gonze, G.-M. Rignanese, M. Verstraete, J.-M. Beuken, Y. Pouillon, R. Caracas, F. Jollet,
 M. Torrent, G. Zerah, M. Mikami, Ph. Ghosez, M. Veithen, J.-Y. Raty, V. Olevano, F. Bruneval,
 L. Reining, R. Godby, G. Onida, D.R. Hamann, and D.C. Allan.
 Z. Kristallogr. 220, 558-562 (2005).
 Comment : the second generic paper describing the ABINIT project. Note that this paper
 should be cited especially if you are using the GW part of ABINIT, as several authors
 of this part are not in the list of authors of the first or third paper.
 The .pdf of the latter paper is available at http://www.abinit.org/about/zfk_0505-06_558-562.pdf.
 Note that it should not redistributed (Copyright by Oldenburg Wissenshaftverlag,
 the licence allows the authors to put it on the Web).


 And optionally :

 [3] First-principles computation of material properties : the ABINIT software project. 
 X. Gonze, J.-M. Beuken, R. Caracas, F. Detraux, M. Fuchs, G.-M. Rignanese, L. Sindic,
 M. Verstraete, G. Zerah, F. Jollet, M. Torrent, A. Roy, M. Mikami, Ph. Ghosez, J.-Y. Raty, D.C. Allan.
 Computational Materials Science 25, 478-492 (2002). http://dx.doi.org/10.1016/S0927-0256(02)00325-7
 Comment : the original paper describing the ABINIT project.

 [4] Fast radix 2, 3, 4 and 5 kernels for Fast Fourier Transformations
 on computers with overlapping multiply-add instructions.
 S. Goedecker, SIAM J. on Scientific Computing 18, 1605 (1997).
 Proc.   0 individual time (sec): cpu=         15.2  wall=         15.8

 Calculation completed.
.Delivered    3 WARNINGs and   2 COMMENTs to log file.
