  ABINIT 
  
  Give name for formatted input file: 
input/02_nscf.in
  Give name for formatted output file:
output/hbn_nscf.out
  Give root name for generic input files:
io_dir/hbn_scf_out
  Give root name for generic output files:
io_dir/hbn_nscf_out
  Give root name for generic temporary files:
io_dir/hbn_nscf_tmp

 herald :  WARNING -
  The starting date is more than 2 years after the initial release
  of this version of ABINIT, namely Aug 2013.
  Note that the use beyond 3 years after the release will not be supported.
  Action : please, switch to a more recent version of ABINIT.


.Version 7.4.1 of ABINIT 
.(MPI version, prepared for a x86_64_linux_gnu4.8 computer) 

.Copyright (C) 1998-2013 ABINIT group . 
 ABINIT comes with ABSOLUTELY NO WARRANTY.
 It is free software, and you are welcome to redistribute it
 under certain conditions (GNU General Public License,
 see ~abinit/COPYING or http://www.gnu.org/copyleft/gpl.txt).

 ABINIT is a project of the Universite Catholique de Louvain,
 Corning Inc. and other collaborators, see ~abinit/doc/developers/contributors.txt .
 Please read ~abinit/doc/users/acknowledgments.html for suggested
 acknowledgments of the ABINIT effort.
 For more information, see http://www.abinit.org .

.Starting date : Thu 19 Nov 2015.
- ( at 23h22 )
  

 herald :  WARNING -
  The starting date is more than 2 years after the initial release
  of this version of ABINIT, namely Aug 2013.
  Note that the use beyond 3 years after the release will not be supported.
  Action : please, switch to a more recent version of ABINIT.


 ++++++++++++++++++++++++++++++++++++++++++++++++++++++++++++++++++++++++++++++

 === Build Information === 
  Version       : 7.4.1
  Build target  : x86_64_linux_gnu4.8
  Build date    : 20150508

 === Compiler Suite === 
  C compiler       : gnu4.8
  CFLAGS           :  -g -O2 -mtune=native -march=native
  C++ compiler     : gnu4.8
  CXXFLAGS         :  -g -O2 -mtune=native -march=native
  Fortran compiler : gnu4.8
  FCFLAGS          :  -g -ffree-line-length-none
  FC_LDFLAGS       : 

 === Optimizations === 
  Debug level        : basic
  Optimization level : standard
  Architecture       : unknown_unknown

 === MPI === 
  Parallel build : yes
  Parallel I/O   : auto
  Time tracing   : no
  GPU support    : no

 === Connectors / Fallbacks === 
  Connectors on : yes
  Fallbacks on  : yes
  DFT flavor    : none
  FFT flavor    : none
  LINALG flavor : netlib
  MATH flavor   : none
  TIMER flavor  : abinit
  TRIO flavor   : none

 === Experimental features === 
  Bindings            : no
  Exports             : no
  GW double-precision : no

 ++++++++++++++++++++++++++++++++++++++++++++++++++++++++++++++++++++++++++++++


 ++++++++++++++++++++++++++++++++++++++++++++++++++++++++++++++++++++++++++++++
 Default optimizations:
   -O2 -mtune=native -march=native


 ++++++++++++++++++++++++++++++++++++++++++++++++++++++++++++++++++++++++++++++


 ++++++++++++++++++++++++++++++++++++++++++++++++++++++++++++++++++++++++++++++
 CPP options activated during the build:

                    CC_GNU                    FC_GNU HAVE_FC_ALLOCATABLE_DT...

      HAVE_FC_COMMAND_LINE        HAVE_FC_CONTIGUOUS           HAVE_FC_CPUTIME

              HAVE_FC_EXIT             HAVE_FC_FLUSH             HAVE_FC_GAMMA

            HAVE_FC_GETENV          HAVE_FC_INT_QUAD             HAVE_FC_IOMSG

     HAVE_FC_ISO_C_BINDING        HAVE_FC_LONG_LINES              HAVE_FC_NULL

         HAVE_FC_STREAM_IO          HAVE_FORTRAN2003               HAVE_LINALG

        HAVE_LINALG_SERIAL                  HAVE_MPI                 HAVE_MPI2

               HAVE_MPI_IO HAVE_MPI_TYPE_CREATE_S...             HAVE_OS_LINUX

                HAVE_TIMER         HAVE_TIMER_ABINIT            HAVE_TIMER_MPI

         HAVE_TIMER_SERIAL
 ++++++++++++++++++++++++++++++++++++++++++++++++++++++++++++++++++++++++++++++

- input  file    -> input/02_nscf.in
- output file    -> output/hbn_nscf.out
- root for input  files -> io_dir/hbn_scf_out
- root for output files -> io_dir/hbn_nscf_out

-instrng :    45 lines of input have been read from file input/02_nscf.in


 iofn2 : Please give name of formatted atomic psp file
 iofn2 : for atom type   1 , psp file is psp/5b.pspnc

 iofn2 : Please give name of formatted atomic psp file
 iofn2 : for atom type   2 , psp file is psp/7n.pspnc
  read the values zionpsp=  3.0 , pspcod=   1 , lmax=   1
  read the values zionpsp=  5.0 , pspcod=   1 , lmax=   1

 inpspheads : deduce mpsang  =   2, n1xccc  =2501.

 invars1m : enter jdtset=     0
 invars1 : treat image number     1

 symlatt : the Bravais lattice is hP (primitive hexagonal)
  xcart  is defined in input file
 ingeo : takes atomic coordinates from input array xcart

 symlatt : the Bravais lattice is hP (primitive hexagonal)

 symlatt : the Bravais lattice is hP (primitive hexagonal)
 symspgr : the symmetry operation no.   1 is the identity
 symspgr : the symmetry operation no.   2 is an inversion
 symplanes : the symmetry operation no.   3 is a tertiary c plane
 symaxes : the symmetry operation no.   4 is a tertiary 2-axis
 symaxes : the symmetry operation no.   5 is a 6_3-axis
 symspgr : the symmetry operation no.   6 is a -6 axis
 symplanes : the symmetry operation no.   7 is a secondary m plane
 symaxes : the symmetry operation no.   8 is a secondary 2-axis
 symaxes : the symmetry operation no.   9 is a 3-axis
 symspgr : the symmetry operation no.  10 is a -3 axis
 symplanes : the symmetry operation no.  11 is a tertiary c plane
 symaxes : the symmetry operation no.  12 is a tertiary 2-axis
 symaxes : the symmetry operation no.  13 is a 2_1-axis
 symplanes : the symmetry operation no.  14 is a primary m plane
 symplanes : the symmetry operation no.  15 is a secondary m plane
 symaxes : the symmetry operation no.  16 is a secondary 2-axis
 symaxes : the symmetry operation no.  17 is a 3-axis
 symspgr : the symmetry operation no.  18 is a -3 axis
 symplanes : the symmetry operation no.  19 is a tertiary c plane
 symaxes : the symmetry operation no.  20 is a tertiary 2-axis
 symaxes : the symmetry operation no.  21 is a 6_3-axis
 symspgr : the symmetry operation no.  22 is a -6 axis
 symplanes : the symmetry operation no.  23 is a secondary m plane
 symaxes : the symmetry operation no.  24 is a secondary 2-axis
 symspgr : spgroup= 194  P6_3/m m c   (=D6h^4)
 getkgrid : length of smallest supercell vector (bohr)=    9.432746E+00
       Simple Lattice Grid
 symkpt : found identity, with number  1
 getkgrid : length of smallest supercell vector (bohr)=    9.432746E+00
       Simple Lattice Grid
 symkpt : found identity, with number  1
  dtset%nelect=   16.000000000000000     
 chkneu : initialized the occupation numbers for occopt=    1
    spin-unpolarized case :
  2.00  2.00  2.00  2.00  2.00  2.00  2.00  2.00  0.00  0.00
  mpi_setup : enter 

 mpi_setup : WARNING -
 For non ground state calculation, set bandpp, npfft, npband, npspinor and npkpt to 1
 mpi_setup1: mkmem  undefined in the input file. Use default mkmem  = nkpt
 mpi_setup1: With nkpt_me=    2 and mkmem  =     2, ground state wf handled in core.
 mpi_setup1: mkqmem undefined in the input file. Use default mkqmem = nkpt
 mpi_setup1: With nkpt_me=    2 and mkqmem =     2, ground state wf handled in core.
 mpi_setup1: mk1mem undefined in the input file. Use default mk1mem = nkpt
 mpi_setup1: With nkpt_me=    2 and mk1mem =     2, ground state wf handled in core.

 getng.F90:200:WARNING
   The second and third dimension of the FFT grid,    0    0  were imposed to be multiple of the number of processors for the FFT,    1
 For input ecut=  4.000000E+01 best grid ngfft=      30      30      72
       max ecut=  4.313970E+01

 ==== FFT mesh ====
  FFT mesh divisions ........................    30   30   72
  Augmented FFT divisions ...................    31   31   72
  FFT algorithm .............................   112
  FFT cache size ............................    16
 getmpw: optimal value of mpw=    2834

 Symmetries : space group P6_3/m m c (#194); Bravais hP (primitive hexag.)

 getdim_nloc : deduce lmnmax  =   1, lnmax  =   1,
                      lmnmaxso=   1, lnmaxso=   1.
 setmqgrid : COMMENT -
  The number of points "mqgrid" in reciprocal space used for the
  description of the pseudopotentials has been set automatically
  by abinit to :     3467.
 memory : analysis of memory needs
================================================================================
 Values of the parameters that define the memory need of the present run
   intxc =         0  ionmov =         0    iscf =        -2 xclevel =         1
  lmnmax =         1   lnmax =         1   mband =        10  mffmem =         1
P  mgfft =        72   mkmem =         2 mpssoang=         2     mpw =      2834
  mqgrid =      3467   natom =         4    nfft =     64800    nkpt =         2
  nloalg =         4  nspden =         1 nspinor =         1  nsppol =         1
    nsym =        12  n1xccc =      2501  ntypat =         2  occopt =         1
================================================================================
P This job should need less than                      12.605 Mbytes of memory.
  Rough estimation (10% accuracy) of disk space for files :
_ WF disk file :      0.867 Mbytes ; DEN or POT disk file :      0.496 Mbytes.
================================================================================

 Biggest array : cg(disk), with      0.8669 MBytes.
 memana : allocated an array of      0.867 Mbytes, for testing purposes.
 memana : allocated      12.605 Mbytes, for testing purposes.
 The job will continue.
--------------------------------------------------------------------------------
------------- Echo of variables that govern the present computation ------------
--------------------------------------------------------------------------------
-
- outvars: echo of selected default values                                      
-   accesswff0 =  0 , fftalg0 =112 , wfoptalg0 =  0
-
- outvars: echo of global parameters not present in the input file              
-  max_nthreads =    0
-
 -outvars: echo values of preprocessed input variables --------
            acell      4.7163728000E+00  4.7163728000E+00  1.2175836200E+01 Bohr
              amu      1.08110000E+01  1.40067400E+01
           diemac      4.50000000E+00
             ecut      4.00000000E+01 Hartree
           getden           1
             iscf          -2
           istwfk        1    1
              kpt      0.00000000E+00  0.00000000E+00  0.00000000E+00
                       5.00000000E-01  0.00000000E+00  0.00000000E+00
         kptrlatt        2    0    0      0    2    0      0    0    1
          kptrlen      9.43274560E+00
P           mkmem           2
            natom           4
            nband          10
         nbandkss          60
           nbdbuf           2
            ngfft          30      30      72
             nkpt           2
            nstep         100
             nsym          12
           ntypat           2
            rprim      1.0000000000E+00  0.0000000000E+00  0.0000000000E+00
                      -5.0000000000E-01  8.6602540378E-01  0.0000000000E+00
                       0.0000000000E+00  0.0000000000E+00  1.0000000000E+00
          spgroup         194
        symmorphi           0
           symrel      1  0  0   0  1  0   0  0  1       0 -1  0  -1  0  0   0  0 -1
                      -1 -1  0   1  0  0   0  0 -1      -1  0  0   1  1  0   0  0  1
                       0  1  0  -1 -1  0   0  0  1       1  1  0   0 -1  0   0  0 -1
                       1  0  0   0  1  0   0  0 -1       0 -1  0  -1  0  0   0  0  1
                      -1 -1  0   1  0  0   0  0  1      -1  0  0   1  1  0   0  0 -1
                       0  1  0  -1 -1  0   0  0 -1       1  1  0   0 -1  0   0  0  1
            tnons      0.0000000  0.0000000  0.0000000    -0.0000000 -0.0000000  0.0000000
                       0.0000000 -0.0000000  0.0000000     0.0000000  0.0000000  0.0000000
                      -0.0000000 -0.0000000  0.0000000     0.0000000 -0.0000000  0.0000000
                       0.0000000  0.0000000  0.0000000    -0.0000000 -0.0000000  0.0000000
                       0.0000000 -0.0000000  0.0000000     0.0000000  0.0000000  0.0000000
                      -0.0000000 -0.0000000  0.0000000     0.0000000 -0.0000000  0.0000000
           tolwfr      1.00000000E-08
            typat      1  2  1  2
              wtk        0.25000    0.75000
           xangst      1.2478984965E+00  7.2047453285E-01  0.0000000000E+00
                      -1.2478984965E+00 -7.2047453285E-01  0.0000000000E+00
                      -1.2478984965E+00 -7.2047453285E-01  3.2215875063E+00
                       1.2478984965E+00  7.2047453285E-01  3.2215875063E+00
            xcart      2.3581864000E+00  1.3614995528E+00  0.0000000000E+00
                      -2.3581864000E+00 -1.3614995528E+00  0.0000000000E+00
                      -2.3581864000E+00 -1.3614995528E+00  6.0879181000E+00
                       2.3581864000E+00  1.3614995528E+00  6.0879181000E+00
             xred      6.6666666666E-01  3.3333333333E-01  0.0000000000E+00
                      -6.6666666666E-01 -3.3333333333E-01  0.0000000000E+00
                      -6.6666666666E-01 -3.3333333333E-01  5.0000000000E-01
                       6.6666666666E-01  3.3333333333E-01  5.0000000000E-01
            znucl        5.00000    7.00000

================================================================================

 chkinp: machine precision is   2.2204460492503131E-16

 chkinp: Checking input parameters for consistency.
 Checking if input is consistent with KSS generation
 DATA TYPE INFORMATION: 
 REAL:      Data type name: REAL(DP) 
            Kind value:      8
            Precision:      15
            Smallest nonnegligible quantity relative to 1:  0.22204460E-15
            Smallest positive number:                       0.22250739-307
            Largest representable number:                   0.17976931+309
 INTEGER:   Data type name: INTEGER(default) 
            Kind value: 4
            Bit size:   32
            Largest representable number: 2147483647
 LOGICAL:   Data type name: LOGICAL 
            Kind value: 4
 CHARACTER: Data type name: CHARACTER             Kind value: 1
 ==== OpenMP parallelism is OFF ====
 
  ==== Using MPI-2 specifications ==== 
  MPI-IO support is ON
  xmpi_tag_ub ................   2147483647
  xmpi_bsize_ch ..............            1
  xmpi_bsize_int .............            4
  xmpi_bsize_sp ..............            4
  xmpi_bsize_dp ..............            8
  xmpi_bsize_spc .............            8
  xmpi_bsize_dpc .............           16
  xmpio_bsize_frm ............            4
  xmpi_address_kind ..........            8
  xmpi_offset_kind ...........            8
  MPI_WTICK ..................    9.9999999999999995E-007

================================================================================
== DATASET  1 ==================================================================
-   nproc =    1

 setmqgrid : COMMENT -
  The number of points "mqgrid" in reciprocal space used for the
  description of the pseudopotentials has been set automatically
  by abinit to :     3467.

 getdim_nloc : deduce lmnmax  =   1, lnmax  =   1,
                      lmnmaxso=   1, lnmaxso=   1.
 Exchange-correlation functional for the present dataset will be:
  LDA: new Teter (4/93) with spin-polarized option - ixc=1
 Citation for XC functional:
  S. Goedecker, M. Teter, J. Huetter, PRB 54, 1703 (1996)

 Unit cell volume ucvol=  2.3455553E+02 bohr^3
 Angles (23,13,12)=  9.00000000E+01  9.00000000E+01  1.20000000E+02 degrees

 getcut: wavevector=  0.0000  0.0000  0.0000  ngfft=  30  30  72
         ecut(hartree)=     40.000   => boxcut(ratio)=   2.07701
- pspini: atom type   1  psp file is psp/5b.pspnc
- pspatm: opening atomic psp file    psp/5b.pspnc
-  Troullier-Martins psp for element  B         Thu Oct 27 17:29:24 EDT 1994
-  5.00000   3.00000    940714                znucl, zion, pspdat
    1    1    1    1      2001   0.00000      pspcod,pspxc,lmax,lloc,mmax,r2well
    0   8.313  21.401    1   1.5924135        l,e99.0,e99.9,nproj,rcpsp
   0.00000000   0.00000000   0.00000000   0.00000000     rms, ekb1, ekb2, epsatm
    1  11.531  17.234    0   1.5924135        l,e99.0,e99.9,nproj,rcpsp
   0.00000000   0.00000000   0.00000000   0.00000000     rms, ekb1, ekb2, epsatm
    1.10004537463277    0.35216853368804    0.40909985967175   rchrg,fchrg,qchrg
 pspatm: epsatm=    0.59609267
         --- l  ekb(1:nproj) -->
             0    3.906219
 pspatm: atomic psp has been read  and splines computed

- pspini: atom type   2  psp file is psp/7n.pspnc
- pspatm: opening atomic psp file    psp/7n.pspnc
-  Troullier-Martins psp for element  N         Thu Oct 27 17:29:45 EDT 1994
-  7.00000   5.00000    940714                znucl, zion, pspdat
    1    1    1    1      2001   0.00000      pspcod,pspxc,lmax,lloc,mmax,r2well
    0   9.676  16.205    1   1.4975844        l,e99.0,e99.9,nproj,rcpsp
   0.00000000   0.00000000   0.00000000   0.00000000     rms, ekb1, ekb2, epsatm
    1  17.792  24.348    0   1.4975844        l,e99.0,e99.9,nproj,rcpsp
   0.00000000   0.00000000   0.00000000   0.00000000     rms, ekb1, ekb2, epsatm
    0.67622446232424    2.19275283188720    0.59171052714445   rchrg,fchrg,qchrg
 pspatm: epsatm=    1.31070843
         --- l  ekb(1:nproj) -->
             0    5.141679
 pspatm: atomic psp has been read  and splines computed

   6.10176352E+01                                ecore*ucvol(ha*bohr**3)
   1  1  1  1  1  1  1  1  1  1  1  1
   2  2  2  2  2  2  2  2  2  2  2  2
   3  3  3  3  3  3  3  3  3  3  3  3
   4  4  4  4  4  4  4  4  4  4  4  4
 wfconv:    10 bands initialized randomly with npw=  2831, for ikpt=     1
 wfconv:    10 bands initialized randomly with npw=  2834, for ikpt=     2

 ioarr: reading density data
ioarr: file name is io_dir/hbn_scf_out_DEN

================================================================================

          - hdr_check: checking restart file header for consistency -


        current calculation                         restart file
        -------------------                         ------------

  calculation expects a density         |  input file contains a density
. ABINIT  code version 7.4.1            |  ABINIT  code version 7.4.1
. date 20151119 bantot   20 natom    4  |  date 20151119 bantot  120 natom    4
  nkpt   2 nsym 12 ngfft  30,  30,  72  |  nkpt  12 nsym 12 ngfft  30,  30,  72
  ntypat  2 ecut_eff  40.0000000        |  ntypat  2 ecut_eff  40.0000000
  usepaw  0                             |  usepaw  0
  usewvl  0                             |  usewvl  0
  rprimd:                               |  rprimd:
     4.7163728   0.0000000   0.0000000  |     4.7163728   0.0000000   0.0000000
    -2.3581864   4.0844987   0.0000000  |    -2.3581864   4.0844987   0.0000000
     0.0000000   0.0000000  12.1758362  |     0.0000000   0.0000000  12.1758362
  symafm:                               |  symafm:
    1  1  1  1  1  1  1  1  1  1  1  1  |    1  1  1  1  1  1  1  1  1  1  1  1
  symrel:                               |  symrel:
    1  0  0  0  1  0  0  0  1           |    1  0  0  0  1  0  0  0  1
    0 -1  0 -1  0  0  0  0 -1           |    0 -1  0 -1  0  0  0  0 -1
   -1 -1  0  1  0  0  0  0 -1           |   -1 -1  0  1  0  0  0  0 -1
   -1  0  0  1  1  0  0  0  1           |   -1  0  0  1  1  0  0  0  1
    0  1  0 -1 -1  0  0  0  1           |    0  1  0 -1 -1  0  0  0  1
    1  1  0  0 -1  0  0  0 -1           |    1  1  0  0 -1  0  0  0 -1
    1  0  0  0  1  0  0  0 -1           |    1  0  0  0  1  0  0  0 -1
    0 -1  0 -1  0  0  0  0  1           |    0 -1  0 -1  0  0  0  0  1
   -1 -1  0  1  0  0  0  0  1           |   -1 -1  0  1  0  0  0  0  1
   -1  0  0  1  1  0  0  0 -1           |   -1  0  0  1  1  0  0  0 -1
    0  1  0 -1 -1  0  0  0 -1           |    0  1  0 -1 -1  0  0  0 -1
    1  1  0  0 -1  0  0  0  1           |    1  1  0  0 -1  0  0  0  1
  typat:                                |  typat:
    1  2  1  2                          |    1  2  1  2
  so_psp  :                             |  so_psp  :
    1  1                                |    1  1
  tnons:                                |  tnons:
     0.0000000   0.0000000   0.0000000  |     0.0000000   0.0000000   0.0000000
    -0.0000000  -0.0000000   0.0000000  |    -0.0000000  -0.0000000   0.0000000
     0.0000000  -0.0000000   0.0000000  |     0.0000000  -0.0000000   0.0000000
     0.0000000   0.0000000   0.0000000  |     0.0000000   0.0000000   0.0000000
    -0.0000000  -0.0000000   0.0000000  |    -0.0000000  -0.0000000   0.0000000
     0.0000000  -0.0000000   0.0000000  |     0.0000000  -0.0000000   0.0000000
     0.0000000   0.0000000   0.0000000  |     0.0000000   0.0000000   0.0000000
    -0.0000000  -0.0000000   0.0000000  |    -0.0000000  -0.0000000   0.0000000
     0.0000000  -0.0000000   0.0000000  |     0.0000000  -0.0000000   0.0000000
     0.0000000   0.0000000   0.0000000  |     0.0000000   0.0000000   0.0000000
    -0.0000000  -0.0000000   0.0000000  |    -0.0000000  -0.0000000   0.0000000
     0.0000000  -0.0000000   0.0000000  |     0.0000000  -0.0000000   0.0000000
   znucl:                               |   znucl:
    5.00  7.00                          |    5.00  7.00
  pseudopotential atom type  1:         |  pseudopotential atom type  1:
  pspso   0 pspxc   1                   |  pspso   0 pspxc   1
  pspdat 940714 pspcod    1 zion   3.0  |  pspdat 940714 pspcod    1 zion   3.0
  pseudopotential atom type  2:         |  pseudopotential atom type  2:
  pspso   0 pspxc   1                   |  pspso   0 pspxc   1
  pspdat 940714 pspcod    1 zion   5.0  |  pspdat 940714 pspcod    1 zion   5.0
  xred:                                 |  xred:
     0.6666667   0.3333333   0.0000000  |     0.6666667   0.3333333   0.0000000
    -0.6666667  -0.3333333   0.0000000  |    -0.6666667  -0.3333333   0.0000000
    -0.6666667  -0.3333333   0.5000000  |    -0.6666667  -0.3333333   0.5000000
     0.6666667   0.3333333   0.5000000  |     0.6666667   0.3333333   0.5000000
 hdr_check:  Density/Potential file is OK for restart of calculation
================================================================================
ioarr: data read from disk file io_dir/hbn_scf_out_DEN

================================================================================

 getcut: wavevector=  0.0000  0.0000  0.0000  ngfft=  30  30  72
         ecut(hartree)=     40.000   => boxcut(ratio)=   2.07701

 ewald : nr and ng are    3 and   32
 vtorho : nnsclo_now=100, note that nnsclo,dbl_nnsclo,istep=  0 0  1
   1  1  1  1  1  1  1  1  1  1  1  1
   2  2  2  2  2  2  2  2  2  2  2  2
   3  3  3  3  3  3  3  3  3  3  3  3
   4  4  4  4  4  4  4  4  4  4  4  4
 ioarr: writing density data
ioarr: file name is io_dir/hbn_nscf_out_DEN
ioarr: data written to disk file io_dir/hbn_nscf_out_DEN

======================================================================
 Calculating and writing out Kohn-Sham electronic Structure file
 Using diagonalized wavefunctions and energies (kssform=1)

 Additional amount of memory required by "outkss" routine=  246.99 Mbytes.

 Sorting g-vecs for an output of states on an unique "big" PW basis.

 remove_inversion: WARNING - 
 Removing inversion related symmetrie from initial set
 The inversion was not found in the symmetries list.
 Program uses the original set of symmetries
 Since the number of g's to be written on file
 was 0 or too large, it has been set to the max. value.,
 computed from the union of the sets of G vectors for the different k-points.
 Number of g-vectors written on file is:  3311
 Number of bands written on file is:    60

 Since the number of bands to be computed
 is less than the number of G-vectors found,
 the program will perform partial diagonalizations.

 Total amount of disk space required by _KSS file =     6.51 Mb.
  Subdivided into : 
  Header             =     0.04 Mb.
  KB elements        =     0.40 Mb.
  Wavefunctions (PW) =     6.06 Mb.
  PAW projectors     =     0.00 Mb.


 Opening file for KS structure output: io_dir/hbn_nscf_out_KSS
 number of Gamma centered plane waves   3311
 number of Gamma centered shells    383
 number of bands     60
 maximum angular momentum components      2
 number of symmetry operations 12 (without inversion)

 k-point   1
 Eigenvalues in Hartree for ikpt=   1
   1     -0.4861 -0.4716 -0.0768  0.0163  0.1137  0.1137  0.1155  0.1155  0.3534
          0.5464  0.5896  0.5896  0.5956  0.5956  0.6297  0.6404  0.7240  0.7849
          1.0188  1.0804  1.1183  1.2013  1.2013  1.2582  1.3001  1.3001  1.3340
          1.3707  1.3707  1.4586  1.4586  1.4999  1.4999  1.5291  1.5291  1.6052
          1.6570  1.6820  1.8078  1.8686  1.8791  1.8791  1.9268  1.9268  1.9760
          2.0409  2.0409  2.1584  2.1584  2.1744  2.1827  2.1827  2.3074  2.3718
          2.3718  2.4139  2.8096  2.8096  2.8308  2.8309
 Writing out eigenvalues/vectors for ikpt=  1
 Occupation numbers for ikpt=  1
   1      2.0000  2.0000  2.0000  2.0000  2.0000  2.0000  2.0000  2.0000  0.0000
          0.0000  0.0000  0.0000  0.0000  0.0000  0.0000  0.0000  0.0000  0.0000
          0.0000  0.0000  0.0000  0.0000  0.0000  0.0000  0.0000  0.0000  0.0000
          0.0000  0.0000  0.0000  0.0000  0.0000  0.0000  0.0000  0.0000  0.0000
          0.0000  0.0000  0.0000  0.0000  0.0000  0.0000  0.0000  0.0000  0.0000
          0.0000  0.0000  0.0000  0.0000  0.0000  0.0000  0.0000  0.0000  0.0000
          0.0000  0.0000  0.0000  0.0000  0.0000  0.0000

 k-point   2
 Eigenvalues in Hartree for ikpt=   2
   2     -0.3636 -0.3602 -0.1640 -0.1611  0.0090  0.0122  0.1039  0.1487  0.3118
          0.3719  0.5179  0.5342  0.6218  0.6688  0.7158  0.8678  0.9456  0.9534
          0.9678  0.9682  0.9786  1.0042  1.1478  1.1850  1.1984  1.2029  1.2209
          1.2920  1.3827  1.4604  1.5142  1.5230  1.5739  1.6799  1.7984  1.7991
          1.8624  1.8653  1.9998  2.0155  2.0565  2.1175  2.1239  2.1292  2.1691
          2.1731  2.1854  2.2504  2.2542  2.2843  2.3068  2.3204  2.3581  2.3820
          2.4073  2.4890  2.5461  2.5639  2.6245  2.6571
 Writing out eigenvalues/vectors for ikpt=  2
 Occupation numbers for ikpt=  2
   2      2.0000  2.0000  2.0000  2.0000  2.0000  2.0000  2.0000  2.0000  0.0000
          0.0000  0.0000  0.0000  0.0000  0.0000  0.0000  0.0000  0.0000  0.0000
          0.0000  0.0000  0.0000  0.0000  0.0000  0.0000  0.0000  0.0000  0.0000
          0.0000  0.0000  0.0000  0.0000  0.0000  0.0000  0.0000  0.0000  0.0000
          0.0000  0.0000  0.0000  0.0000  0.0000  0.0000  0.0000  0.0000  0.0000
          0.0000  0.0000  0.0000  0.0000  0.0000  0.0000  0.0000  0.0000  0.0000
          0.0000  0.0000  0.0000  0.0000  0.0000  0.0000
 Test on the normalization of the wavefunctions
  min sum_G |a(n,k,G)| =  1.000000
  max sum_G |a(n,k,G)| =  1.000000
 Test on the orthogonalization of the wavefunctions
  min sum_G a(n,k,G)a(n',k,G) =  0.000000
  max sum_G a(n,k,G)a(n',k,G) =  0.000000

================================================================================

 ----iterations are completed or convergence reached----


 outwf: write wavefunction to file io_dir/hbn_nscf_out_WFK, with accesswff -1
 leave_test : synchronization done...
 outwf with iomode: -1, cpu:     0.00, wall:     0.02

== END DATASET(S) ==============================================================
================================================================================
  
 -outvars: echo values of variables after computation  --------
            acell      4.7163728000E+00  4.7163728000E+00  1.2175836200E+01 Bohr
              amu      1.08110000E+01  1.40067400E+01
           diemac      4.50000000E+00
             ecut      4.00000000E+01 Hartree
           getden           1
             iscf          -2
           istwfk        1    1
              kpt      0.00000000E+00  0.00000000E+00  0.00000000E+00
                       5.00000000E-01  0.00000000E+00  0.00000000E+00
         kptrlatt        2    0    0      0    2    0      0    0    1
          kptrlen      9.43274560E+00
P           mkmem           2
            natom           4
            nband          10
         nbandkss          60
           nbdbuf           2
            ngfft          30      30      72
             nkpt           2
            nstep         100
             nsym          12
           ntypat           2
            rprim      1.0000000000E+00  0.0000000000E+00  0.0000000000E+00
                      -5.0000000000E-01  8.6602540378E-01  0.0000000000E+00
                       0.0000000000E+00  0.0000000000E+00  1.0000000000E+00
          spgroup         194
        symmorphi           0
           symrel      1  0  0   0  1  0   0  0  1       0 -1  0  -1  0  0   0  0 -1
                      -1 -1  0   1  0  0   0  0 -1      -1  0  0   1  1  0   0  0  1
                       0  1  0  -1 -1  0   0  0  1       1  1  0   0 -1  0   0  0 -1
                       1  0  0   0  1  0   0  0 -1       0 -1  0  -1  0  0   0  0  1
                      -1 -1  0   1  0  0   0  0  1      -1  0  0   1  1  0   0  0 -1
                       0  1  0  -1 -1  0   0  0 -1       1  1  0   0 -1  0   0  0  1
            tnons      0.0000000  0.0000000  0.0000000    -0.0000000 -0.0000000  0.0000000
                       0.0000000 -0.0000000  0.0000000     0.0000000  0.0000000  0.0000000
                      -0.0000000 -0.0000000  0.0000000     0.0000000 -0.0000000  0.0000000
                       0.0000000  0.0000000  0.0000000    -0.0000000 -0.0000000  0.0000000
                       0.0000000 -0.0000000  0.0000000     0.0000000  0.0000000  0.0000000
                      -0.0000000 -0.0000000  0.0000000     0.0000000 -0.0000000  0.0000000
           tolwfr      1.00000000E-08
            typat      1  2  1  2
              wtk        0.25000    0.75000
           xangst      1.2478984965E+00  7.2047453285E-01  0.0000000000E+00
                      -1.2478984965E+00 -7.2047453288E-01  0.0000000000E+00
                      -1.2478984965E+00 -7.2047453288E-01  3.2215875063E+00
                       1.2478984965E+00  7.2047453285E-01  3.2215875063E+00
            xcart      2.3581864000E+00  1.3614995528E+00  0.0000000000E+00
                      -2.3581864000E+00 -1.3614995529E+00  0.0000000000E+00
                      -2.3581864000E+00 -1.3614995529E+00  6.0879181000E+00
                       2.3581864000E+00  1.3614995528E+00  6.0879181000E+00
             xred      6.6666666666E-01  3.3333333333E-01  0.0000000000E+00
                      -6.6666666667E-01 -3.3333333334E-01  0.0000000000E+00
                      -6.6666666667E-01 -3.3333333334E-01  5.0000000000E-01
                       6.6666666666E-01  3.3333333333E-01  5.0000000000E-01
            znucl        5.00000    7.00000

================================================================================
  

================================================================================

 Suggested references for the acknowledgment of ABINIT usage.

 The users of ABINIT have little formal obligations with respect to the ABINIT group
 (those specified in the GNU General Public License, http://www.gnu.org/copyleft/gpl.txt).
 However, it is common practice in the scientific literature,
 to acknowledge the efforts of people that have made the research possible.
 In this spirit, please find below suggested citations of work written by ABINIT developers,
 corresponding to implementations inside of ABINIT that you have used in the present run.
 Note also that it will be of great value to readers of publications presenting these results,
 to read papers enabling them to understand the theoretical formalism and details
 of the ABINIT implementation.
 For information on why they are suggested, see also http://www.abinit.org/about/?text=acknowledgments.

 [1] ABINIT : First-principles approach of materials and nanosystem properties.
 X. Gonze, B. Amadon, P.-M. Anglade, J.-M. Beuken, F. Bottin, P. Boulanger, F. Bruneval,
 D. Caliste, R. Caracas, M. Cote, T. Deutsch, L. Genovese, Ph. Ghosez, M. Giantomassi
 S. Goedecker, D.R. Hamann, P. Hermet, F. Jollet, G. Jomard, S. Leroux, M. Mancini, S. Mazevet,
 M.J.T. Oliveira, G. Onida, Y. Pouillon, T. Rangel, G.-M. Rignanese, D. Sangalli, R. Shaltaf,
 M. Torrent, M.J. Verstraete, G. Zerah, J.W. Zwanziger
 Computer Phys. Comm. 180, 2582-2615 (2009).
 Comment : the third generic paper describing the ABINIT project.
 Note that a version of this paper, that is not formatted for Computer Phys. Comm. 
 is available at http://www.abinit.org/about/ABINIT_CPC_v10.pdf .
 The licence allows the authors to put it on the Web.

 [2] A brief introduction to the ABINIT software package.
 X. Gonze, G.-M. Rignanese, M. Verstraete, J.-M. Beuken, Y. Pouillon, R. Caracas, F. Jollet,
 M. Torrent, G. Zerah, M. Mikami, Ph. Ghosez, M. Veithen, J.-Y. Raty, V. Olevano, F. Bruneval,
 L. Reining, R. Godby, G. Onida, D.R. Hamann, and D.C. Allan.
 Z. Kristallogr. 220, 558-562 (2005).
 Comment : the second generic paper describing the ABINIT project. Note that this paper
 should be cited especially if you are using the GW part of ABINIT, as several authors
 of this part are not in the list of authors of the first or third paper.
 The .pdf of the latter paper is available at http://www.abinit.org/about/zfk_0505-06_558-562.pdf.
 Note that it should not redistributed (Copyright by Oldenburg Wissenshaftverlag,
 the licence allows the authors to put it on the Web).


 And optionally :

 [3] First-principles computation of material properties : the ABINIT software project. 
 X. Gonze, J.-M. Beuken, R. Caracas, F. Detraux, M. Fuchs, G.-M. Rignanese, L. Sindic,
 M. Verstraete, G. Zerah, F. Jollet, M. Torrent, A. Roy, M. Mikami, Ph. Ghosez, J.-Y. Raty, D.C. Allan.
 Computational Materials Science 25, 478-492 (2002). http://dx.doi.org/10.1016/S0927-0256(02)00325-7
 Comment : the original paper describing the ABINIT project.

 [4] Fast radix 2, 3, 4 and 5 kernels for Fast Fourier Transformations
 on computers with overlapping multiply-add instructions.
 S. Goedecker, SIAM J. on Scientific Computing 18, 1605 (1997).
 Proc.   0 individual time (sec): cpu=         94.5  wall=         95.2

 Calculation completed.
.Delivered    5 WARNINGs and   2 COMMENTs to log file.
