
.Version 7.4.1 of ABINIT 
.(MPI version, prepared for a x86_64_linux_gnu4.8 computer) 

.Copyright (C) 1998-2013 ABINIT group . 
 ABINIT comes with ABSOLUTELY NO WARRANTY.
 It is free software, and you are welcome to redistribute it
 under certain conditions (GNU General Public License,
 see ~abinit/COPYING or http://www.gnu.org/copyleft/gpl.txt).

 ABINIT is a project of the Universite Catholique de Louvain,
 Corning Inc. and other collaborators, see ~abinit/doc/developers/contributors.txt .
 Please read ~abinit/doc/users/acknowledgments.html for suggested
 acknowledgments of the ABINIT effort.
 For more information, see http://www.abinit.org .

.Starting date : Mon 27 Jul 2015.
- ( at 12h31 )
  
- input  file    -> input/LiF_nscf_s2.in
- output file    -> output/LiF_nscf_s2.out
- root for input  files -> io_files/LiF_scf_o
- root for output files -> io_files/LiF_nscf_s2_o


 Symmetries : space group Fm -3 m (#225); Bravais cF (face-center cubic)
================================================================================
 Values of the parameters that define the memory need of the present run
   intxc =         0  ionmov =         0    iscf =        -2 xclevel =         1
  lmnmax =         1   lnmax =         1   mband =        50  mffmem =         1
P  mgfft =        32   mkmem =        10 mpssoang=         2     mpw =      1392
  mqgrid =      3001   natom =         2    nfft =     32768    nkpt =        10
  nloalg =         4  nspden =         1 nspinor =         1  nsppol =         1
    nsym =        48  n1xccc =      2501  ntypat =         2  occopt =         1
================================================================================
P This job should need less than                      17.117 Mbytes of memory.
  Rough estimation (10% accuracy) of disk space for files :
_ WF disk file :     10.622 Mbytes ; DEN or POT disk file :      0.252 Mbytes.
================================================================================

--------------------------------------------------------------------------------
------------- Echo of variables that govern the present computation ------------
--------------------------------------------------------------------------------
-
- outvars: echo of selected default values                                      
-   accesswff0 =  0 , fftalg0 =112 , wfoptalg0 =  0
-
- outvars: echo of global parameters not present in the input file              
-  max_nthreads =    0
-
 -outvars: echo values of preprocessed input variables --------
            acell      7.7034756000E+00  7.7034756000E+00  7.7034756000E+00 Bohr
              amu      6.94100000E+00  1.89984032E+01
      chksymbreak           0
             ecut      4.00000000E+01 Hartree
           irdden           1
             iscf          -2
              kpt      1.25030651E-01  1.25000000E-01  1.25030651E-01
                       3.75030651E-01  1.25000000E-01  1.25030651E-01
                      -3.74969349E-01  1.25000000E-01  1.25030651E-01
                      -1.24969349E-01  1.25000000E-01  1.25030651E-01
                       3.75030651E-01  3.75000000E-01  1.25030651E-01
                      -3.74969349E-01  3.75000000E-01  1.25030651E-01
                      -1.24969349E-01  3.75000000E-01  1.25030651E-01
                      -3.74969349E-01 -3.75000000E-01  1.25030651E-01
                       3.75030651E-01  3.75000000E-01  3.75030651E-01
                      -3.74969349E-01  3.75000000E-01  3.75030651E-01
           kptopt           0
          kssform           3
P           mkmem          10
            natom           2
            nband          50
         nbandkss          50
           nbdbuf           2
            ngfft          32      32      32
             nkpt          10
            nstep        3000
             nsym          48
           ntypat           2
            rprim      0.0000000000E+00  5.0000000000E-01  5.0000000000E-01
                       5.0000000000E-01  0.0000000000E+00  5.0000000000E-01
                       5.0000000000E-01  5.0000000000E-01  0.0000000000E+00
          spgroup         225
        symmorphi           0
           symrel      1  0  0   0  1  0   0  0  1      -1  0  0   0 -1  0   0  0 -1
                       0 -1  1   0 -1  0   1 -1  0       0  1 -1   0  1  0  -1  1  0
                      -1  0  0  -1  0  1  -1  1  0       1  0  0   1  0 -1   1 -1  0
                       0  1 -1   1  0 -1   0  0 -1       0 -1  1  -1  0  1   0  0  1
                      -1  0  0  -1  1  0  -1  0  1       1  0  0   1 -1  0   1  0 -1
                       0 -1  1   1 -1  0   0 -1  0       0  1 -1  -1  1  0   0  1  0
                       1  0  0   0  0  1   0  1  0      -1  0  0   0  0 -1   0 -1  0
                       0  1 -1   0  0 -1   1  0 -1       0 -1  1   0  0  1  -1  0  1
                      -1  0  1  -1  1  0  -1  0  0       1  0 -1   1 -1  0   1  0  0
                       0 -1  0   1 -1  0   0 -1  1       0  1  0  -1  1  0   0  1 -1
                       1  0 -1   0  0 -1   0  1 -1      -1  0  1   0  0  1   0 -1  1
                       0  1  0   0  0  1   1  0  0       0 -1  0   0  0 -1  -1  0  0
                       1  0 -1   0  1 -1   0  0 -1      -1  0  1   0 -1  1   0  0  1
                       0 -1  0   0 -1  1   1 -1  0       0  1  0   0  1 -1  -1  1  0
                      -1  0  1  -1  0  0  -1  1  0       1  0 -1   1  0  0   1 -1  0
                       0  1  0   1  0  0   0  0  1       0 -1  0  -1  0  0   0  0 -1
                       0  0 -1   0  1 -1   1  0 -1       0  0  1   0 -1  1  -1  0  1
                       1 -1  0   0 -1  1   0 -1  0      -1  1  0   0  1 -1   0  1  0
                       0  0  1   1  0  0   0  1  0       0  0 -1  -1  0  0   0 -1  0
                      -1  1  0  -1  0  0  -1  0  1       1 -1  0   1  0  0   1  0 -1
                       0  0  1   0  1  0   1  0  0       0  0 -1   0 -1  0  -1  0  0
                       1 -1  0   0 -1  0   0 -1  1      -1  1  0   0  1  0   0  1 -1
                       0  0 -1   1  0 -1   0  1 -1       0  0  1  -1  0  1   0 -1  1
                      -1  1  0  -1  0  1  -1  0  0       1 -1  0   1  0 -1   1  0  0
           tolwfr      1.00000000E-16
            typat      1  2
           xangst      0.0000000000E+00  0.0000000000E+00  0.0000000000E+00
                      -2.0382518572E+00  0.0000000000E+00  0.0000000000E+00
            xcart      0.0000000000E+00  0.0000000000E+00  0.0000000000E+00
                      -3.8517378000E+00  0.0000000000E+00  0.0000000000E+00
             xred      0.0000000000E+00  0.0000000000E+00  0.0000000000E+00
                       5.0000000000E-01 -5.0000000000E-01 -5.0000000000E-01
            znucl        3.00000    9.00000

================================================================================

 chkinp: Checking input parameters for consistency.

================================================================================
== DATASET  1 ==================================================================
-   nproc =    1

 Exchange-correlation functional for the present dataset will be:
  LDA: new Teter (4/93) with spin-polarized option - ixc=1
 Citation for XC functional:
  S. Goedecker, M. Teter, J. Huetter, PRB 54, 1703 (1996)

 Real(R)+Recip(G) space primitive vectors, cartesian coordinates (Bohr,Bohr^-1):
 R(1)=  0.0000000  3.8517378  3.8517378  G(1)= -0.1298115  0.1298115  0.1298115
 R(2)=  3.8517378  0.0000000  3.8517378  G(2)=  0.1298115 -0.1298115  0.1298115
 R(3)=  3.8517378  3.8517378  0.0000000  G(3)=  0.1298115  0.1298115 -0.1298115
 Unit cell volume ucvol=  1.1428787E+02 bohr^3
 Angles (23,13,12)=  6.00000000E+01  6.00000000E+01  6.00000000E+01 degrees

 getcut: wavevector=  0.0000  0.0000  0.0000  ngfft=  32  32  32
         ecut(hartree)=     40.000   => boxcut(ratio)=   2.06340

--- Pseudopotential description ------------------------------------------------
- pspini: atom type   1  psp file is 03-Li.psp
- pspatm: opening atomic psp file    03-Li.psp
-  Troullier-Martins psp for element  Li        Thu Oct 27 17:29:06 EDT 1994
-  3.00000   1.00000    940714                znucl, zion, pspdat
    1    1    1    1      2001   0.00000      pspcod,pspxc,lmax,lloc,mmax,r2well
    0   2.534   6.726    1   2.4315963        l,e99.0,e99.9,nproj,rcpsp
   0.00000000   0.00000000   0.00000000   0.00000000     rms, ekb1, ekb2, epsatm
    1   3.283   5.836    0   2.4315963        l,e99.0,e99.9,nproj,rcpsp
   0.00000000   0.00000000   0.00000000   0.00000000     rms, ekb1, ekb2, epsatm
    2.44451305764117    0.01373030920382    0.17502673260160   rchrg,fchrg,qchrg
 pspatm: epsatm=   -1.77437869
         --- l  ekb(1:nproj) -->
             0    1.242797
 pspatm: atomic psp has been read  and splines computed

- pspini: atom type   2  psp file is 09-F.psp
- pspatm: opening atomic psp file    09-F.psp
-  Troullier-Martins psp for element  F         Thu Oct 27 17:30:08 EDT 1994
-  9.00000   7.00000    940714                znucl, zion, pspdat
    1    1    1    1      2001   0.00000      pspcod,pspxc,lmax,lloc,mmax,r2well
    0   6.771  17.439    1   1.3876018        l,e99.0,e99.9,nproj,rcpsp
   0.00000000   0.00000000   0.00000000   0.00000000     rms, ekb1, ekb2, epsatm
    1  24.372  32.350    0   1.3876018        l,e99.0,e99.9,nproj,rcpsp
   0.00000000   0.00000000   0.00000000   0.00000000     rms, ekb1, ekb2, epsatm
    0.49406148701180    6.36128955091623    0.66947621353748   rchrg,fchrg,qchrg
 pspatm: epsatm=    1.80528525
         --- l  ekb(1:nproj) -->
             0    6.310228
 pspatm: atomic psp has been read  and splines computed

--------------------------------------------------------------------------------

P newkpt: treating     50 bands with npw=    1387 for ikpt=   1 by node    0
P newkpt: treating     50 bands with npw=    1376 for ikpt=   2 by node    0
P newkpt: treating     50 bands with npw=    1389 for ikpt=   3 by node    0
P newkpt: treating     50 bands with npw=    1380 for ikpt=   4 by node    0
P newkpt: treating     50 bands with npw=    1385 for ikpt=   5 by node    0
P newkpt: treating     50 bands with npw=    1386 for ikpt=   6 by node    0
P newkpt: treating     50 bands with npw=    1380 for ikpt=   7 by node    0
P newkpt: treating     50 bands with npw=    1370 for ikpt=   8 by node    0
P newkpt: treating     50 bands with npw=    1392 for ikpt=   9 by node    0
P newkpt: treating     50 bands with npw=    1377 for ikpt=  10 by node    0


================================================================================
 prteigrs : about to open file io_files/LiF_nscf_s2_o_EIG
 Non-SCF case, kpt    1 (  0.12503  0.12500  0.12503), residuals and eigenvalues=
  9.56E-18  1.38E-17  6.49E-17  4.25E-17  8.07E-17  3.92E-18  1.42E-17  9.84E-18
  5.34E-17  1.90E-18  7.80E-18  9.61E-17  1.23E-17  1.59E-17  2.09E-18  4.32E-17
  3.21E-17  3.57E-17  5.33E-18  2.48E-17  9.36E-17  6.83E-18  4.81E-18  4.18E-18
  1.76E-17  9.64E-17  5.99E-18  4.65E-18  8.34E-17  8.84E-17  7.12E-17  1.88E-17
  5.37E-17  1.85E-17  8.66E-17  4.34E-17  2.03E-17  6.49E-17  5.19E-17  3.57E-17
  3.86E-17  6.45E-17  5.81E-17  8.26E-17  8.19E-17  3.30E-17  5.85E-17  7.60E-17
  9.39E-17  1.50E-07
 -7.2199E-01 -2.3228E-02 -8.5013E-03 -8.4995E-03  3.2254E-01  7.2299E-01
  7.8373E-01  7.8374E-01  9.0081E-01  9.0902E-01  9.0905E-01  1.1037E+00
  1.1673E+00  1.1673E+00  1.4410E+00  1.6006E+00  1.6379E+00  1.6380E+00
  2.1465E+00  2.1465E+00  2.2241E+00  2.2924E+00  2.4006E+00  2.4006E+00
  2.4990E+00  2.5560E+00  2.5561E+00  2.6182E+00  2.7537E+00  2.7538E+00
  2.9721E+00  2.9721E+00  3.0088E+00  3.1141E+00  3.1141E+00  3.1172E+00
  3.2283E+00  3.2283E+00  3.2388E+00  3.2464E+00  3.3992E+00  3.3992E+00
  3.4060E+00  3.5090E+00  3.5238E+00  3.5239E+00  3.5960E+00  3.5961E+00
  3.5969E+00  3.7160E+00
  prteigrs : nnsclo,ikpt= 3000    1 max resid (incl. the buffer)=  1.49534E-07
 Non-SCF case, kpt    2 (  0.37503  0.12500  0.12503), residuals and eigenvalues=
  5.52E-17  2.82E-17  1.97E-17  2.16E-17  7.59E-18  1.35E-17  1.25E-17  1.02E-17
  3.98E-18  4.34E-17  3.60E-18  9.11E-17  2.43E-17  2.20E-17  5.61E-17  8.28E-18
  3.89E-18  2.81E-17  2.72E-17  3.63E-17  4.51E-17  7.62E-18  6.03E-18  7.09E-18
  2.46E-17  4.95E-18  5.71E-18  2.23E-17  4.03E-17  1.50E-17  3.31E-17  5.14E-17
  2.31E-17  3.74E-17  1.58E-17  2.21E-17  2.12E-17  1.19E-17  1.63E-17  2.31E-17
  1.43E-17  2.15E-17  3.81E-17  8.18E-17  2.98E-17  4.68E-17  5.10E-17  4.45E-17
  6.37E-10  4.82E-06
 -7.1143E-01 -6.8258E-02 -2.8428E-02 -1.0590E-02  3.7583E-01  5.9260E-01
  6.9181E-01  6.9968E-01  9.6512E-01  9.6971E-01  1.0640E+00  1.2892E+00
  1.3025E+00  1.3314E+00  1.4674E+00  1.5884E+00  1.6436E+00  1.7586E+00
  1.8229E+00  1.9417E+00  2.0670E+00  2.2139E+00  2.2502E+00  2.3916E+00
  2.4179E+00  2.5801E+00  2.5854E+00  2.6206E+00  2.7043E+00  2.7245E+00
  2.7731E+00  2.8329E+00  2.8472E+00  2.9164E+00  3.0582E+00  3.0588E+00
  3.1321E+00  3.1456E+00  3.1603E+00  3.2215E+00  3.3208E+00  3.4340E+00
  3.5251E+00  3.5753E+00  3.6451E+00  3.6649E+00  3.7565E+00  3.7594E+00
  3.8580E+00  3.9209E+00
  prteigrs : nnsclo,ikpt= 3000    2 max resid (incl. the buffer)=  4.81820E-06
 Non-SCF case, kpt    3 ( -0.37497  0.12500  0.12503), residuals and eigenvalues=
  3.63E-17  1.11E-17  1.83E-17  1.73E-17  1.71E-17  4.56E-17  1.57E-17  9.21E-18
  9.42E-17  5.67E-17  3.82E-18  3.84E-18  8.20E-18  4.48E-18  9.38E-17  1.06E-17
  8.08E-18  1.99E-17  5.17E-18  4.90E-17  2.33E-17  4.15E-17  6.33E-17  3.54E-17
  6.22E-17  9.37E-17  1.12E-17  1.41E-17  9.59E-18  3.19E-17  8.82E-17  9.31E-18
  3.85E-17  5.34E-17  4.52E-17  7.28E-17  8.21E-17  1.89E-17  2.16E-17  4.31E-17
  8.20E-17  9.14E-17  2.35E-17  7.98E-17  6.89E-17  5.47E-17  3.98E-17  9.49E-17
  8.57E-14  4.98E-06
 -7.0476E-01 -9.5455E-02 -2.8482E-02 -1.9576E-02  3.9208E-01  5.6806E-01
  6.6129E-01  6.6781E-01  9.7805E-01  1.0851E+00  1.1249E+00  1.2700E+00
  1.3278E+00  1.3442E+00  1.5866E+00  1.6042E+00  1.7277E+00  1.8140E+00
  1.8973E+00  1.8974E+00  1.9927E+00  2.1410E+00  2.1605E+00  2.2334E+00
  2.3178E+00  2.3734E+00  2.4278E+00  2.5068E+00  2.6114E+00  2.6722E+00
  2.6730E+00  2.8431E+00  2.9052E+00  2.9187E+00  2.9841E+00  3.0329E+00
  3.0632E+00  3.1420E+00  3.3378E+00  3.3529E+00  3.5218E+00  3.5501E+00
  3.5811E+00  3.6491E+00  3.7267E+00  3.8014E+00  3.8262E+00  3.9131E+00
  3.9698E+00  4.0760E+00
  prteigrs : nnsclo,ikpt= 3000    3 max resid (incl. the buffer)=  4.98002E-06
 Non-SCF case, kpt    4 ( -0.12497  0.12500  0.12503), residuals and eigenvalues=
  3.65E-18  4.93E-17  1.78E-17  5.41E-17  8.55E-18  3.07E-17  1.83E-17  7.25E-18
  6.05E-18  5.38E-18  1.81E-17  4.36E-18  3.70E-17  4.48E-17  3.17E-18  4.53E-18
  1.38E-17  1.44E-17  1.22E-17  2.40E-17  5.12E-17  5.42E-17  5.66E-17  2.91E-17
  9.80E-18  4.93E-17  5.55E-18  7.69E-17  2.24E-17  1.65E-17  5.91E-17  1.72E-17
  8.14E-18  1.52E-17  1.50E-17  1.75E-17  3.87E-17  5.55E-17  5.52E-17  9.26E-17
  5.09E-17  3.64E-17  2.52E-17  5.87E-17  5.16E-17  9.21E-17  7.10E-17  8.13E-17
  3.74E-10  5.84E-10
 -7.1584E-01 -4.8784E-02 -1.7670E-02 -1.5932E-02  3.5980E-01  6.4820E-01
  7.1776E-01  7.2767E-01  8.1919E-01  1.0409E+00  1.0515E+00  1.2150E+00
  1.2500E+00  1.2802E+00  1.4161E+00  1.5936E+00  1.5957E+00  1.7118E+00
  1.9473E+00  2.0084E+00  2.1525E+00  2.1941E+00  2.2814E+00  2.3893E+00
  2.5267E+00  2.5637E+00  2.6506E+00  2.7065E+00  2.7271E+00  2.7960E+00
  2.9087E+00  2.9254E+00  2.9268E+00  2.9630E+00  2.9984E+00  3.0653E+00
  3.1055E+00  3.1592E+00  3.1889E+00  3.2698E+00  3.2786E+00  3.3053E+00
  3.4411E+00  3.4688E+00  3.5647E+00  3.5913E+00  3.6089E+00  3.6279E+00
  3.7716E+00  3.7747E+00
  prteigrs : nnsclo,ikpt= 3000    4 max resid (incl. the buffer)=  5.84328E-10
 Non-SCF case, kpt    5 (  0.37503  0.37500  0.12503), residuals and eigenvalues=
  2.50E-17  3.49E-17  9.00E-17  2.62E-17  2.24E-17  5.15E-18  1.08E-17  1.95E-17
  8.43E-18  2.48E-17  1.70E-17  5.06E-18  6.34E-18  2.51E-17  6.60E-18  7.64E-18
  7.16E-18  1.11E-17  7.85E-17  4.21E-17  5.90E-17  2.88E-17  6.39E-18  8.33E-18
  8.50E-18  1.72E-17  6.10E-17  7.01E-17  1.07E-17  5.89E-18  7.61E-18  6.05E-17
  1.15E-17  1.85E-17  5.66E-17  1.05E-17  7.62E-18  7.15E-17  3.04E-17  5.83E-17
  3.25E-17  8.60E-17  9.46E-17  6.81E-17  2.76E-17  9.32E-17  3.52E-17  5.07E-17
  4.91E-14  5.75E-09
 -7.0604E-01 -8.1467E-02 -3.4768E-02 -3.0423E-02  4.2700E-01  5.9338E-01
  6.5689E-01  7.0472E-01  7.6832E-01  1.1975E+00  1.2060E+00  1.2560E+00
  1.3416E+00  1.3870E+00  1.5117E+00  1.5296E+00  1.5917E+00  1.8013E+00
  1.8608E+00  1.9332E+00  1.9943E+00  2.0123E+00  2.2179E+00  2.3389E+00
  2.3725E+00  2.4470E+00  2.5390E+00  2.6023E+00  2.6629E+00  2.6939E+00
  2.7748E+00  2.8545E+00  2.9374E+00  3.0268E+00  3.0314E+00  3.0700E+00
  3.0769E+00  3.1719E+00  3.2257E+00  3.3383E+00  3.3709E+00  3.4403E+00
  3.4642E+00  3.4771E+00  3.5279E+00  3.5586E+00  3.7511E+00  3.7948E+00
  3.8713E+00  3.9880E+00
  prteigrs : nnsclo,ikpt= 3000    5 max resid (incl. the buffer)=  5.75134E-09
 Non-SCF case, kpt    6 ( -0.37497  0.37500  0.12503), residuals and eigenvalues=
  4.12E-17  4.88E-17  8.14E-18  2.06E-17  6.35E-18  9.99E-17  9.02E-17  7.54E-18
  8.65E-17  4.62E-17  6.36E-17  3.13E-17  4.74E-17  6.60E-18  8.85E-18  7.66E-18
  4.99E-18  2.17E-17  3.10E-17  8.37E-18  5.50E-17  6.58E-17  2.59E-17  6.30E-17
  3.14E-17  4.51E-17  5.55E-17  5.15E-18  5.91E-18  2.96E-17  6.09E-18  8.77E-18
  1.23E-17  2.40E-17  1.40E-17  5.43E-17  3.43E-17  1.31E-17  2.76E-17  2.73E-17
  6.34E-17  2.11E-17  8.32E-17  3.36E-17  5.03E-17  4.30E-17  7.93E-17  8.18E-17
  5.07E-11  5.15E-08
 -6.9866E-01 -9.2415E-02 -6.5780E-02 -3.3419E-02  4.8924E-01  5.3280E-01
  6.3185E-01  6.7178E-01  8.7791E-01  1.0794E+00  1.2371E+00  1.3279E+00
  1.3834E+00  1.4428E+00  1.6023E+00  1.6329E+00  1.7638E+00  1.7982E+00
  1.8693E+00  1.8905E+00  1.9950E+00  2.0529E+00  2.1188E+00  2.1580E+00
  2.2075E+00  2.3091E+00  2.3473E+00  2.3996E+00  2.5134E+00  2.5689E+00
  2.7143E+00  2.7554E+00  2.7861E+00  3.0301E+00  3.0849E+00  3.1258E+00
  3.2320E+00  3.3551E+00  3.3876E+00  3.4652E+00  3.5145E+00  3.5694E+00
  3.5945E+00  3.6607E+00  3.7408E+00  3.7703E+00  3.8074E+00  3.8735E+00
  3.9679E+00  3.9892E+00
  prteigrs : nnsclo,ikpt= 3000    6 max resid (incl. the buffer)=  5.14750E-08
 Non-SCF case, kpt    7 ( -0.12497  0.37500  0.12503), residuals and eigenvalues=
  7.63E-17  1.05E-17  3.65E-17  1.60E-17  4.21E-18  3.38E-17  9.62E-17  2.85E-18
  6.84E-18  5.75E-18  6.22E-18  1.50E-17  7.67E-18  9.23E-17  2.16E-17  4.83E-18
  4.28E-18  1.70E-17  7.64E-18  8.36E-18  2.77E-17  8.93E-18  2.14E-17  2.00E-17
  4.36E-17  9.20E-18  1.11E-17  1.62E-17  4.44E-17  1.61E-17  3.53E-17  1.08E-17
  2.11E-17  7.37E-18  1.37E-17  4.12E-17  7.12E-17  1.90E-17  4.26E-17  5.88E-17
  7.09E-17  6.52E-17  5.55E-17  8.57E-17  5.86E-17  5.90E-17  9.72E-17  6.86E-17
  2.52E-13  2.85E-10
 -7.0435E-01 -8.4264E-02 -4.7256E-02 -2.1946E-02  4.2292E-01  5.5642E-01
  6.6344E-01  6.7861E-01  9.0791E-01  1.0700E+00  1.1702E+00  1.2994E+00
  1.3266E+00  1.3851E+00  1.5225E+00  1.6877E+00  1.6930E+00  1.7664E+00
  1.8529E+00  1.9280E+00  1.9959E+00  2.0744E+00  2.1940E+00  2.2203E+00
  2.3205E+00  2.4029E+00  2.4278E+00  2.5332E+00  2.6316E+00  2.6710E+00
  2.7026E+00  2.7790E+00  2.8253E+00  3.0053E+00  3.0230E+00  3.0953E+00
  3.1386E+00  3.2661E+00  3.3419E+00  3.3594E+00  3.4210E+00  3.4727E+00
  3.4850E+00  3.5899E+00  3.7267E+00  3.7457E+00  3.8546E+00  3.8836E+00
  3.9336E+00  3.9735E+00
  prteigrs : nnsclo,ikpt= 3000    7 max resid (incl. the buffer)=  2.85068E-10
 Non-SCF case, kpt    8 ( -0.37497 -0.37500  0.12503), residuals and eigenvalues=
  1.18E-17  1.52E-17  8.76E-17  2.97E-17  4.64E-17  2.57E-17  1.93E-17  1.09E-17
  7.49E-18  2.23E-17  3.95E-17  1.50E-17  3.97E-17  1.70E-17  9.95E-17  2.18E-17
  1.56E-17  6.71E-18  3.83E-17  6.11E-17  2.39E-17  1.14E-17  7.93E-17  2.33E-17
  7.00E-17  1.75E-17  9.44E-18  8.24E-17  1.89E-17  3.54E-17  7.76E-17  1.13E-17
  1.02E-17  1.85E-17  4.45E-17  1.53E-17  6.99E-18  6.82E-18  8.30E-18  2.46E-17
  3.34E-17  3.02E-17  6.80E-17  4.90E-17  6.27E-17  9.83E-17  4.93E-17  8.77E-17
  5.80E-11  5.06E-05
 -6.9819E-01 -1.0706E-01 -4.7856E-02 -3.9278E-02  4.9795E-01  5.5982E-01
  6.1844E-01  7.0104E-01  7.4782E-01  1.1858E+00  1.3095E+00  1.3297E+00
  1.4112E+00  1.4982E+00  1.5571E+00  1.5917E+00  1.7086E+00  1.7256E+00
  1.8157E+00  1.8354E+00  1.8540E+00  2.0325E+00  2.1402E+00  2.1608E+00
  2.2017E+00  2.4159E+00  2.5206E+00  2.5756E+00  2.6221E+00  2.6900E+00
  2.7103E+00  2.8249E+00  2.8932E+00  2.9048E+00  2.9258E+00  3.0319E+00
  3.0418E+00  3.1680E+00  3.2563E+00  3.3640E+00  3.4918E+00  3.5180E+00
  3.5901E+00  3.7005E+00  3.7721E+00  3.8783E+00  3.9031E+00  3.9586E+00
  4.0267E+00  4.0852E+00
  prteigrs : nnsclo,ikpt= 3000    8 max resid (incl. the buffer)=  5.05592E-05
 Non-SCF case, kpt    9 (  0.37503  0.37500  0.37503), residuals and eigenvalues=
  3.64E-17  2.53E-17  4.84E-17  1.80E-17  1.13E-17  1.36E-17  4.14E-18  1.60E-17
  8.69E-18  1.27E-17  7.91E-18  3.62E-17  1.00E-17  1.57E-17  6.05E-18  7.99E-18
  3.59E-18  2.85E-17  1.63E-17  7.69E-18  2.80E-17  1.77E-17  9.65E-18  4.49E-17
  3.29E-17  1.36E-17  6.59E-17  6.39E-17  5.77E-17  3.57E-17  5.69E-18  9.82E-17
  1.84E-17  5.01E-17  6.81E-18  2.38E-17  2.32E-17  4.93E-17  7.42E-17  1.97E-17
  4.14E-17  1.46E-17  1.31E-17  3.25E-17  7.82E-17  1.62E-17  7.59E-17  4.46E-17
  7.09E-17  3.79E-07
 -7.0894E-01 -8.7331E-02 -1.4108E-02 -1.4106E-02  3.6738E-01  5.8705E-01
  6.7567E-01  6.7567E-01  1.0001E+00  1.0554E+00  1.0554E+00  1.2491E+00
  1.3224E+00  1.3224E+00  1.6095E+00  1.6345E+00  1.6345E+00  1.6733E+00
  1.8844E+00  1.8845E+00  1.9512E+00  2.3062E+00  2.3062E+00  2.3201E+00
  2.4428E+00  2.5106E+00  2.5106E+00  2.6230E+00  2.6379E+00  2.6379E+00
  2.6640E+00  2.7722E+00  2.7722E+00  2.8740E+00  2.9048E+00  3.1471E+00
  3.1471E+00  3.2990E+00  3.3062E+00  3.3062E+00  3.3882E+00  3.4553E+00
  3.4553E+00  3.5733E+00  3.5922E+00  3.5922E+00  3.8597E+00  3.8693E+00
  3.8693E+00  4.1039E+00
  prteigrs : nnsclo,ikpt= 3000    9 max resid (incl. the buffer)=  3.78959E-07
 Non-SCF case, kpt   10 ( -0.37497  0.37500  0.37503), residuals and eigenvalues=
  8.81E-17  1.94E-17  3.92E-17  4.50E-17  5.20E-18  5.54E-17  3.70E-18  8.26E-17
  1.02E-17  3.99E-17  3.58E-17  1.62E-17  1.84E-17  6.30E-17  1.28E-17  6.51E-17
  1.90E-17  9.38E-18  1.78E-17  1.28E-17  1.80E-17  2.23E-17  2.29E-17  9.34E-17
  1.74E-17  2.99E-17  7.52E-17  3.36E-18  2.85E-17  5.14E-17  7.61E-18  5.48E-18
  7.73E-17  3.43E-17  5.70E-17  1.71E-17  5.17E-17  3.39E-17  6.33E-17  1.97E-17
  3.78E-17  2.72E-17  2.83E-17  6.66E-17  3.95E-17  6.06E-17  5.32E-17  8.40E-17
  5.02E-15  5.50E-05
 -7.0130E-01 -8.7188E-02 -6.1275E-02 -2.3747E-02  4.4308E-01  5.3653E-01
  6.5893E-01  6.7461E-01  9.3274E-01  1.1051E+00  1.1238E+00  1.2946E+00
  1.3414E+00  1.4126E+00  1.5558E+00  1.7368E+00  1.7667E+00  1.8322E+00
  1.9018E+00  1.9120E+00  2.0031E+00  2.0486E+00  2.0851E+00  2.1439E+00
  2.1837E+00  2.3354E+00  2.3642E+00  2.4772E+00  2.5795E+00  2.6875E+00
  2.6890E+00  2.7290E+00  2.8693E+00  2.9229E+00  2.9928E+00  3.1162E+00
  3.1834E+00  3.3152E+00  3.3547E+00  3.4362E+00  3.5172E+00  3.5677E+00
  3.6017E+00  3.7182E+00  3.7670E+00  3.8086E+00  3.8657E+00  3.8884E+00
  3.9133E+00  4.0523E+00
  prteigrs : nnsclo,ikpt= 3000   10 max resid (incl. the buffer)=  5.50223E-05

======================================================================
 Calculating and writing out Kohn-Sham electronic Structure file
 Using conjugate gradient wavefunctions and energies (kssform=3)
 number of Gamma centered plane waves   1885
 number of Gamma centered shells     73
 number of bands     50
 maximum angular momentum components      2
 Conjugate gradient eigenvalues
   k    eigenvalues [Hartree]
   1     -0.7220 -0.0232 -0.0085 -0.0085  0.3225  0.7230  0.7837  0.7837  0.9008
          0.9090  0.9091  1.1037  1.1673  1.1673  1.4410  1.6006  1.6379  1.6380
          2.1465  2.1465  2.2241  2.2924  2.4006  2.4006  2.4990  2.5560  2.5561
          2.6182  2.7537  2.7538  2.9721  2.9721  3.0088  3.1141  3.1141  3.1172
          3.2283  3.2283  3.2388  3.2464  3.3992  3.3992  3.4060  3.5090  3.5238
          3.5239  3.5960  3.5961  3.5969  3.7160
   2     -0.7114 -0.0683 -0.0284 -0.0106  0.3758  0.5926  0.6918  0.6997  0.9651
          0.9697  1.0640  1.2892  1.3025  1.3314  1.4674  1.5884  1.6436  1.7586
          1.8229  1.9417  2.0670  2.2139  2.2502  2.3916  2.4179  2.5801  2.5854
          2.6206  2.7043  2.7245  2.7731  2.8329  2.8472  2.9164  3.0582  3.0588
          3.1321  3.1456  3.1603  3.2215  3.3208  3.4340  3.5251  3.5753  3.6451
          3.6649  3.7565  3.7594  3.8580  3.9209
   3     -0.7048 -0.0955 -0.0285 -0.0196  0.3921  0.5681  0.6613  0.6678  0.9781
          1.0851  1.1249  1.2700  1.3278  1.3442  1.5866  1.6042  1.7277  1.8140
          1.8973  1.8974  1.9927  2.1410  2.1605  2.2334  2.3178  2.3734  2.4278
          2.5068  2.6114  2.6722  2.6730  2.8431  2.9052  2.9187  2.9841  3.0329
          3.0632  3.1420  3.3378  3.3529  3.5218  3.5501  3.5811  3.6491  3.7267
          3.8014  3.8262  3.9131  3.9698  4.0760
   4     -0.7158 -0.0488 -0.0177 -0.0159  0.3598  0.6482  0.7178  0.7277  0.8192
          1.0409  1.0515  1.2150  1.2500  1.2802  1.4161  1.5936  1.5957  1.7118
          1.9473  2.0084  2.1525  2.1941  2.2814  2.3893  2.5267  2.5637  2.6506
          2.7065  2.7271  2.7960  2.9087  2.9254  2.9268  2.9630  2.9984  3.0653
          3.1055  3.1592  3.1889  3.2698  3.2786  3.3053  3.4411  3.4688  3.5647
          3.5913  3.6089  3.6279  3.7716  3.7747
   5     -0.7060 -0.0815 -0.0348 -0.0304  0.4270  0.5934  0.6569  0.7047  0.7683
          1.1975  1.2060  1.2560  1.3416  1.3870  1.5117  1.5296  1.5917  1.8013
          1.8608  1.9332  1.9943  2.0123  2.2179  2.3389  2.3725  2.4470  2.5390
          2.6023  2.6629  2.6939  2.7748  2.8545  2.9374  3.0268  3.0314  3.0700
          3.0769  3.1719  3.2257  3.3383  3.3709  3.4403  3.4642  3.4771  3.5279
          3.5586  3.7511  3.7948  3.8713  3.9880
   6     -0.6987 -0.0924 -0.0658 -0.0334  0.4892  0.5328  0.6319  0.6718  0.8779
          1.0794  1.2371  1.3279  1.3834  1.4428  1.6023  1.6329  1.7638  1.7982
          1.8693  1.8905  1.9950  2.0529  2.1188  2.1580  2.2075  2.3091  2.3473
          2.3996  2.5134  2.5689  2.7143  2.7554  2.7861  3.0301  3.0849  3.1258
          3.2320  3.3551  3.3876  3.4652  3.5145  3.5694  3.5945  3.6607  3.7408
          3.7703  3.8074  3.8735  3.9679  3.9892
   7     -0.7043 -0.0843 -0.0473 -0.0219  0.4229  0.5564  0.6634  0.6786  0.9079
          1.0700  1.1702  1.2994  1.3266  1.3851  1.5225  1.6877  1.6930  1.7664
          1.8529  1.9280  1.9959  2.0744  2.1940  2.2203  2.3205  2.4029  2.4278
          2.5332  2.6316  2.6710  2.7026  2.7790  2.8253  3.0053  3.0230  3.0953
          3.1386  3.2661  3.3419  3.3594  3.4210  3.4727  3.4850  3.5899  3.7267
          3.7457  3.8546  3.8836  3.9336  3.9735
   8     -0.6982 -0.1071 -0.0479 -0.0393  0.4979  0.5598  0.6184  0.7010  0.7478
          1.1858  1.3095  1.3297  1.4112  1.4982  1.5571  1.5917  1.7086  1.7256
          1.8157  1.8354  1.8540  2.0325  2.1402  2.1608  2.2017  2.4159  2.5206
          2.5756  2.6221  2.6900  2.7103  2.8249  2.8932  2.9048  2.9258  3.0319
          3.0418  3.1680  3.2563  3.3640  3.4918  3.5180  3.5901  3.7005  3.7721
          3.8783  3.9031  3.9586  4.0267  4.0852
   9     -0.7089 -0.0873 -0.0141 -0.0141  0.3674  0.5871  0.6757  0.6757  1.0001
          1.0554  1.0554  1.2491  1.3224  1.3224  1.6095  1.6345  1.6345  1.6733
          1.8844  1.8845  1.9512  2.3062  2.3062  2.3201  2.4428  2.5106  2.5106
          2.6230  2.6379  2.6379  2.6640  2.7722  2.7722  2.8740  2.9048  3.1471
          3.1471  3.2990  3.3062  3.3062  3.3882  3.4553  3.4553  3.5733  3.5922
          3.5922  3.8597  3.8693  3.8693  4.1039
  10     -0.7013 -0.0872 -0.0613 -0.0237  0.4431  0.5365  0.6589  0.6746  0.9327
          1.1051  1.1238  1.2946  1.3414  1.4126  1.5558  1.7368  1.7667  1.8322
          1.9018  1.9120  2.0031  2.0486  2.0851  2.1439  2.1837  2.3354  2.3642
          2.4772  2.5795  2.6875  2.6890  2.7290  2.8693  2.9229  2.9928  3.1162
          3.1834  3.3152  3.3547  3.4362  3.5172  3.5677  3.6017  3.7182  3.7670
          3.8086  3.8657  3.8884  3.9133  4.0523
 Test on the normalization of the wavefunctions
  min sum_G |a(n,k,G)| =  1.000000
  max sum_G |a(n,k,G)| =  1.000000
 Test on the orthogonalization of the wavefunctions
  min sum_G a(n,k,G)a(n',k,G) =  0.000000
  max sum_G a(n,k,G)a(n',k,G) =  0.000000

================================================================================

 ----iterations are completed or convergence reached----

 Mean square residual over all n,k,spin=   2.3193E-07; max=  5.0559E-05
   0.1250  0.1250  0.1250    1  1.49534E-07 kpt; spin; max resid(k); each band:
  9.56E-18 1.38E-17 6.49E-17 4.25E-17 8.07E-17 3.92E-18 1.42E-17 9.84E-18
  5.34E-17 1.90E-18 7.80E-18 9.61E-17 1.23E-17 1.59E-17 2.09E-18 4.32E-17
  3.21E-17 3.57E-17 5.33E-18 2.48E-17 9.36E-17 6.83E-18 4.81E-18 4.18E-18
  1.76E-17 9.64E-17 5.99E-18 4.65E-18 8.34E-17 8.84E-17 7.12E-17 1.88E-17
  5.37E-17 1.85E-17 8.66E-17 4.34E-17 2.03E-17 6.49E-17 5.19E-17 3.57E-17
  3.86E-17 6.45E-17 5.81E-17 8.26E-17 8.19E-17 3.30E-17 5.85E-17 7.60E-17
  9.39E-17 1.50E-07
   0.3750  0.1250  0.1250    1  4.81820E-06 kpt; spin; max resid(k); each band:
  5.52E-17 2.82E-17 1.97E-17 2.16E-17 7.59E-18 1.35E-17 1.25E-17 1.02E-17
  3.98E-18 4.34E-17 3.60E-18 9.11E-17 2.43E-17 2.20E-17 5.61E-17 8.28E-18
  3.89E-18 2.81E-17 2.72E-17 3.63E-17 4.51E-17 7.62E-18 6.03E-18 7.09E-18
  2.46E-17 4.95E-18 5.71E-18 2.23E-17 4.03E-17 1.50E-17 3.31E-17 5.14E-17
  2.31E-17 3.74E-17 1.58E-17 2.21E-17 2.12E-17 1.19E-17 1.63E-17 2.31E-17
  1.43E-17 2.15E-17 3.81E-17 8.18E-17 2.98E-17 4.68E-17 5.10E-17 4.45E-17
  6.37E-10 4.82E-06
  -0.3750  0.1250  0.1250    1  4.98002E-06 kpt; spin; max resid(k); each band:
  3.63E-17 1.11E-17 1.83E-17 1.73E-17 1.71E-17 4.56E-17 1.57E-17 9.21E-18
  9.42E-17 5.67E-17 3.82E-18 3.84E-18 8.20E-18 4.48E-18 9.38E-17 1.06E-17
  8.08E-18 1.99E-17 5.17E-18 4.90E-17 2.33E-17 4.15E-17 6.33E-17 3.54E-17
  6.22E-17 9.37E-17 1.12E-17 1.41E-17 9.59E-18 3.19E-17 8.82E-17 9.31E-18
  3.85E-17 5.34E-17 4.52E-17 7.28E-17 8.21E-17 1.89E-17 2.16E-17 4.31E-17
  8.20E-17 9.14E-17 2.35E-17 7.98E-17 6.89E-17 5.47E-17 3.98E-17 9.49E-17
  8.57E-14 4.98E-06
  -0.1250  0.1250  0.1250    1  5.84328E-10 kpt; spin; max resid(k); each band:
  3.65E-18 4.93E-17 1.78E-17 5.41E-17 8.55E-18 3.07E-17 1.83E-17 7.25E-18
  6.05E-18 5.38E-18 1.81E-17 4.36E-18 3.70E-17 4.48E-17 3.17E-18 4.53E-18
  1.38E-17 1.44E-17 1.22E-17 2.40E-17 5.12E-17 5.42E-17 5.66E-17 2.91E-17
  9.80E-18 4.93E-17 5.55E-18 7.69E-17 2.24E-17 1.65E-17 5.91E-17 1.72E-17
  8.14E-18 1.52E-17 1.50E-17 1.75E-17 3.87E-17 5.55E-17 5.52E-17 9.26E-17
  5.09E-17 3.64E-17 2.52E-17 5.87E-17 5.16E-17 9.21E-17 7.10E-17 8.13E-17
  3.74E-10 5.84E-10
   0.3750  0.3750  0.1250    1  5.75134E-09 kpt; spin; max resid(k); each band:
  2.50E-17 3.49E-17 9.00E-17 2.62E-17 2.24E-17 5.15E-18 1.08E-17 1.95E-17
  8.43E-18 2.48E-17 1.70E-17 5.06E-18 6.34E-18 2.51E-17 6.60E-18 7.64E-18
  7.16E-18 1.11E-17 7.85E-17 4.21E-17 5.90E-17 2.88E-17 6.39E-18 8.33E-18
  8.50E-18 1.72E-17 6.10E-17 7.01E-17 1.07E-17 5.89E-18 7.61E-18 6.05E-17
  1.15E-17 1.85E-17 5.66E-17 1.05E-17 7.62E-18 7.15E-17 3.04E-17 5.83E-17
  3.25E-17 8.60E-17 9.46E-17 6.81E-17 2.76E-17 9.32E-17 3.52E-17 5.07E-17
  4.91E-14 5.75E-09
  -0.3750  0.3750  0.1250    1  5.14750E-08 kpt; spin; max resid(k); each band:
  4.12E-17 4.88E-17 8.14E-18 2.06E-17 6.35E-18 9.99E-17 9.02E-17 7.54E-18
  8.65E-17 4.62E-17 6.36E-17 3.13E-17 4.74E-17 6.60E-18 8.85E-18 7.66E-18
  4.99E-18 2.17E-17 3.10E-17 8.37E-18 5.50E-17 6.58E-17 2.59E-17 6.30E-17
  3.14E-17 4.51E-17 5.55E-17 5.15E-18 5.91E-18 2.96E-17 6.09E-18 8.77E-18
  1.23E-17 2.40E-17 1.40E-17 5.43E-17 3.43E-17 1.31E-17 2.76E-17 2.73E-17
  6.34E-17 2.11E-17 8.32E-17 3.36E-17 5.03E-17 4.30E-17 7.93E-17 8.18E-17
  5.07E-11 5.15E-08
  -0.1250  0.3750  0.1250    1  2.85068E-10 kpt; spin; max resid(k); each band:
  7.63E-17 1.05E-17 3.65E-17 1.60E-17 4.21E-18 3.38E-17 9.62E-17 2.85E-18
  6.84E-18 5.75E-18 6.22E-18 1.50E-17 7.67E-18 9.23E-17 2.16E-17 4.83E-18
  4.28E-18 1.70E-17 7.64E-18 8.36E-18 2.77E-17 8.93E-18 2.14E-17 2.00E-17
  4.36E-17 9.20E-18 1.11E-17 1.62E-17 4.44E-17 1.61E-17 3.53E-17 1.08E-17
  2.11E-17 7.37E-18 1.37E-17 4.12E-17 7.12E-17 1.90E-17 4.26E-17 5.88E-17
  7.09E-17 6.52E-17 5.55E-17 8.57E-17 5.86E-17 5.90E-17 9.72E-17 6.86E-17
  2.52E-13 2.85E-10
  -0.3750 -0.3750  0.1250    1  5.05592E-05 kpt; spin; max resid(k); each band:
  1.18E-17 1.52E-17 8.76E-17 2.97E-17 4.64E-17 2.57E-17 1.93E-17 1.09E-17
  7.49E-18 2.23E-17 3.95E-17 1.50E-17 3.97E-17 1.70E-17 9.95E-17 2.18E-17
  1.56E-17 6.71E-18 3.83E-17 6.11E-17 2.39E-17 1.14E-17 7.93E-17 2.33E-17
  7.00E-17 1.75E-17 9.44E-18 8.24E-17 1.89E-17 3.54E-17 7.76E-17 1.13E-17
  1.02E-17 1.85E-17 4.45E-17 1.53E-17 6.99E-18 6.82E-18 8.30E-18 2.46E-17
  3.34E-17 3.02E-17 6.80E-17 4.90E-17 6.27E-17 9.83E-17 4.93E-17 8.77E-17
  5.80E-11 5.06E-05
   0.3750  0.3750  0.3750    1  3.78959E-07 kpt; spin; max resid(k); each band:
  3.64E-17 2.53E-17 4.84E-17 1.80E-17 1.13E-17 1.36E-17 4.14E-18 1.60E-17
  8.69E-18 1.27E-17 7.91E-18 3.62E-17 1.00E-17 1.57E-17 6.05E-18 7.99E-18
  3.59E-18 2.85E-17 1.63E-17 7.69E-18 2.80E-17 1.77E-17 9.65E-18 4.49E-17
  3.29E-17 1.36E-17 6.59E-17 6.39E-17 5.77E-17 3.57E-17 5.69E-18 9.82E-17
  1.84E-17 5.01E-17 6.81E-18 2.38E-17 2.32E-17 4.93E-17 7.42E-17 1.97E-17
  4.14E-17 1.46E-17 1.31E-17 3.25E-17 7.82E-17 1.62E-17 7.59E-17 4.46E-17
  7.09E-17 3.79E-07
  -0.3750  0.3750  0.3750    1  5.50223E-05 kpt; spin; max resid(k); each band:
  8.81E-17 1.94E-17 3.92E-17 4.50E-17 5.20E-18 5.54E-17 3.70E-18 8.26E-17
  1.02E-17 3.99E-17 3.58E-17 1.62E-17 1.84E-17 6.30E-17 1.28E-17 6.51E-17
  1.90E-17 9.38E-18 1.78E-17 1.28E-17 1.80E-17 2.23E-17 2.29E-17 9.34E-17
  1.74E-17 2.99E-17 7.52E-17 3.36E-18 2.85E-17 5.14E-17 7.61E-18 5.48E-18
  7.73E-17 3.43E-17 5.70E-17 1.71E-17 5.17E-17 3.39E-17 6.33E-17 1.97E-17
  3.78E-17 2.72E-17 2.83E-17 6.66E-17 3.95E-17 6.06E-17 5.32E-17 8.40E-17
  5.02E-15 5.50E-05
 reduced coordinates (array xred) for    2 atoms
       0.000000000000      0.000000000000      0.000000000000
       0.500000000000     -0.500000000000     -0.500000000000

 cartesian coordinates (angstrom) at end:
    1      0.00000000000000     0.00000000000000     0.00000000000000
    2     -2.03825185722459     0.00000000000000     0.00000000000000
 length scales=  7.703475600000  7.703475600000  7.703475600000 bohr
              =  4.076503714449  4.076503714449  4.076503714449 angstroms
 prteigrs : about to open file io_files/LiF_nscf_s2_o_EIG
 Eigenvalues (hartree) for nkpt=  10  k points:
 kpt#   1, nband= 50, wtk=  1.00000, kpt=  0.1250  0.1250  0.1250 (reduced coord)
  -0.72199  -0.02323  -0.00850  -0.00850   0.32254   0.72299   0.78373   0.78374
   0.90081   0.90902   0.90905   1.10371   1.16727   1.16728   1.44096   1.60058
   1.63794   1.63795   2.14650   2.14653   2.22409   2.29241   2.40059   2.40061
   2.49898   2.55603   2.55606   2.61818   2.75373   2.75378   2.97214   2.97215
   3.00876   3.11413   3.11414   3.11719   3.22827   3.22829   3.23882   3.24645
   3.39917   3.39925   3.40598   3.50900   3.52378   3.52388   3.59602   3.59606
   3.59685   3.71599
 kpt#   2, nband= 50, wtk=  1.00000, kpt=  0.3750  0.1250  0.1250 (reduced coord)
  -0.71143  -0.06826  -0.02843  -0.01059   0.37583   0.59260   0.69181   0.69968
   0.96512   0.96971   1.06400   1.28923   1.30253   1.33136   1.46736   1.58844
   1.64356   1.75855   1.82289   1.94167   2.06705   2.21394   2.25020   2.39156
   2.41790   2.58013   2.58541   2.62058   2.70430   2.72450   2.77309   2.83292
   2.84725   2.91642   3.05815   3.05877   3.13213   3.14560   3.16026   3.22149
   3.32081   3.43400   3.52514   3.57526   3.64508   3.66492   3.75649   3.75940
   3.85801   3.92086
 kpt#   3, nband= 50, wtk=  1.00000, kpt= -0.3750  0.1250  0.1250 (reduced coord)
  -0.70476  -0.09546  -0.02848  -0.01958   0.39208   0.56806   0.66129   0.66781
   0.97805   1.08513   1.12492   1.26999   1.32783   1.34423   1.58656   1.60425
   1.72768   1.81404   1.89725   1.89744   1.99268   2.14096   2.16054   2.23336
   2.31781   2.37336   2.42781   2.50683   2.61144   2.67219   2.67303   2.84307
   2.90525   2.91866   2.98415   3.03289   3.06320   3.14203   3.33783   3.35291
   3.52177   3.55008   3.58112   3.64914   3.72674   3.80140   3.82620   3.91310
   3.96984   4.07596
 kpt#   4, nband= 50, wtk=  1.00000, kpt= -0.1250  0.1250  0.1250 (reduced coord)
  -0.71584  -0.04878  -0.01767  -0.01593   0.35980   0.64820   0.71776   0.72767
   0.81919   1.04091   1.05148   1.21503   1.25004   1.28018   1.41609   1.59361
   1.59574   1.71182   1.94728   2.00841   2.15253   2.19412   2.28138   2.38929
   2.52665   2.56372   2.65064   2.70649   2.72706   2.79598   2.90868   2.92543
   2.92680   2.96303   2.99841   3.06532   3.10546   3.15922   3.18885   3.26984
   3.27862   3.30532   3.44111   3.46875   3.56472   3.59127   3.60894   3.62794
   3.77161   3.77474
 kpt#   5, nband= 50, wtk=  1.00000, kpt=  0.3750  0.3750  0.1250 (reduced coord)
  -0.70604  -0.08147  -0.03477  -0.03042   0.42700   0.59338   0.65689   0.70472
   0.76832   1.19753   1.20604   1.25599   1.34156   1.38700   1.51166   1.52958
   1.59168   1.80129   1.86082   1.93321   1.99434   2.01230   2.21789   2.33889
   2.37250   2.44702   2.53901   2.60227   2.66294   2.69386   2.77484   2.85451
   2.93736   3.02677   3.03136   3.06998   3.07695   3.17188   3.22567   3.33832
   3.37090   3.44026   3.46418   3.47713   3.52789   3.55856   3.75112   3.79476
   3.87128   3.98801
 kpt#   6, nband= 50, wtk=  1.00000, kpt= -0.3750  0.3750  0.1250 (reduced coord)
  -0.69866  -0.09241  -0.06578  -0.03342   0.48924   0.53280   0.63185   0.67178
   0.87791   1.07940   1.23707   1.32794   1.38338   1.44278   1.60230   1.63288
   1.76376   1.79824   1.86931   1.89051   1.99499   2.05288   2.11877   2.15799
   2.20748   2.30911   2.34735   2.39955   2.51336   2.56887   2.71435   2.75542
   2.78605   3.03014   3.08491   3.12580   3.23205   3.35512   3.38758   3.46518
   3.51453   3.56944   3.59451   3.66065   3.74083   3.77026   3.80743   3.87345
   3.96790   3.98924
 kpt#   7, nband= 50, wtk=  1.00000, kpt= -0.1250  0.3750  0.1250 (reduced coord)
  -0.70435  -0.08426  -0.04726  -0.02195   0.42292   0.55642   0.66344   0.67861
   0.90791   1.07003   1.17019   1.29936   1.32663   1.38512   1.52248   1.68769
   1.69302   1.76635   1.85289   1.92799   1.99588   2.07443   2.19401   2.22027
   2.32050   2.40290   2.42777   2.53317   2.63159   2.67101   2.70255   2.77901
   2.82534   3.00526   3.02303   3.09525   3.13861   3.26615   3.34188   3.35944
   3.42098   3.47272   3.48497   3.58987   3.72669   3.74566   3.85462   3.88363
   3.93364   3.97347
 kpt#   8, nband= 50, wtk=  1.00000, kpt= -0.3750 -0.3750  0.1250 (reduced coord)
  -0.69819  -0.10706  -0.04786  -0.03928   0.49795   0.55982   0.61844   0.70104
   0.74782   1.18585   1.30950   1.32972   1.41116   1.49823   1.55707   1.59173
   1.70863   1.72563   1.81570   1.83537   1.85402   2.03251   2.14016   2.16079
   2.20169   2.41587   2.52064   2.57564   2.62210   2.69005   2.71028   2.82495
   2.89320   2.90482   2.92582   3.03189   3.04181   3.16802   3.25627   3.36401
   3.49178   3.51798   3.59014   3.70051   3.77214   3.87826   3.90308   3.95857
   4.02675   4.08522
 kpt#   9, nband= 50, wtk=  1.00000, kpt=  0.3750  0.3750  0.3750 (reduced coord)
  -0.70894  -0.08733  -0.01411  -0.01411   0.36738   0.58705   0.67567   0.67567
   1.00011   1.05537   1.05539   1.24907   1.32243   1.32244   1.60953   1.63448
   1.63453   1.67331   1.88444   1.88445   1.95117   2.30617   2.30620   2.32013
   2.44280   2.51062   2.51063   2.62297   2.63791   2.63792   2.66404   2.77217
   2.77218   2.87400   2.90479   3.14713   3.14714   3.29900   3.30621   3.30622
   3.38820   3.45530   3.45531   3.57332   3.59216   3.59219   3.85973   3.86926
   3.86932   4.10393
 kpt#  10, nband= 50, wtk=  1.00000, kpt= -0.3750  0.3750  0.3750 (reduced coord)
  -0.70130  -0.08719  -0.06128  -0.02375   0.44308   0.53653   0.65893   0.67461
   0.93274   1.10508   1.12376   1.29457   1.34143   1.41265   1.55582   1.73677
   1.76672   1.83224   1.90183   1.91196   2.00306   2.04860   2.08508   2.14387
   2.18373   2.33545   2.36417   2.47719   2.57947   2.68748   2.68901   2.72901
   2.86929   2.92292   2.99280   3.11621   3.18339   3.31524   3.35467   3.43620
   3.51715   3.56769   3.60172   3.71822   3.76698   3.80862   3.86574   3.88845
   3.91332   4.05232
 Total charge density [el/Bohr^3]
,     Maximum=    1.5547E+00  at reduced coord.    0.4688    0.5000    0.5938
,Next maximum=    1.5547E+00  at reduced coord.    0.4375    0.5000    0.5938
,     Minimum=    3.7812E-04  at reduced coord.    0.0000    0.0000    0.0000
,Next minimum=    5.4756E-04  at reduced coord.    0.0313    0.0000    0.0000
,  Integrated=    8.0000E+00

== END DATASET(S) ==============================================================
================================================================================
  
 -outvars: echo values of variables after computation  --------
            acell      7.7034756000E+00  7.7034756000E+00  7.7034756000E+00 Bohr
              amu      6.94100000E+00  1.89984032E+01
      chksymbreak           0
             ecut      4.00000000E+01 Hartree
           irdden           1
             iscf          -2
              kpt      1.25030651E-01  1.25000000E-01  1.25030651E-01
                       3.75030651E-01  1.25000000E-01  1.25030651E-01
                      -3.74969349E-01  1.25000000E-01  1.25030651E-01
                      -1.24969349E-01  1.25000000E-01  1.25030651E-01
                       3.75030651E-01  3.75000000E-01  1.25030651E-01
                      -3.74969349E-01  3.75000000E-01  1.25030651E-01
                      -1.24969349E-01  3.75000000E-01  1.25030651E-01
                      -3.74969349E-01 -3.75000000E-01  1.25030651E-01
                       3.75030651E-01  3.75000000E-01  3.75030651E-01
                      -3.74969349E-01  3.75000000E-01  3.75030651E-01
           kptopt           0
          kssform           3
P           mkmem          10
            natom           2
            nband          50
         nbandkss          50
           nbdbuf           2
            ngfft          32      32      32
             nkpt          10
            nstep        3000
             nsym          48
           ntypat           2
            rprim      0.0000000000E+00  5.0000000000E-01  5.0000000000E-01
                       5.0000000000E-01  0.0000000000E+00  5.0000000000E-01
                       5.0000000000E-01  5.0000000000E-01  0.0000000000E+00
          spgroup         225
        symmorphi           0
           symrel      1  0  0   0  1  0   0  0  1      -1  0  0   0 -1  0   0  0 -1
                       0 -1  1   0 -1  0   1 -1  0       0  1 -1   0  1  0  -1  1  0
                      -1  0  0  -1  0  1  -1  1  0       1  0  0   1  0 -1   1 -1  0
                       0  1 -1   1  0 -1   0  0 -1       0 -1  1  -1  0  1   0  0  1
                      -1  0  0  -1  1  0  -1  0  1       1  0  0   1 -1  0   1  0 -1
                       0 -1  1   1 -1  0   0 -1  0       0  1 -1  -1  1  0   0  1  0
                       1  0  0   0  0  1   0  1  0      -1  0  0   0  0 -1   0 -1  0
                       0  1 -1   0  0 -1   1  0 -1       0 -1  1   0  0  1  -1  0  1
                      -1  0  1  -1  1  0  -1  0  0       1  0 -1   1 -1  0   1  0  0
                       0 -1  0   1 -1  0   0 -1  1       0  1  0  -1  1  0   0  1 -1
                       1  0 -1   0  0 -1   0  1 -1      -1  0  1   0  0  1   0 -1  1
                       0  1  0   0  0  1   1  0  0       0 -1  0   0  0 -1  -1  0  0
                       1  0 -1   0  1 -1   0  0 -1      -1  0  1   0 -1  1   0  0  1
                       0 -1  0   0 -1  1   1 -1  0       0  1  0   0  1 -1  -1  1  0
                      -1  0  1  -1  0  0  -1  1  0       1  0 -1   1  0  0   1 -1  0
                       0  1  0   1  0  0   0  0  1       0 -1  0  -1  0  0   0  0 -1
                       0  0 -1   0  1 -1   1  0 -1       0  0  1   0 -1  1  -1  0  1
                       1 -1  0   0 -1  1   0 -1  0      -1  1  0   0  1 -1   0  1  0
                       0  0  1   1  0  0   0  1  0       0  0 -1  -1  0  0   0 -1  0
                      -1  1  0  -1  0  0  -1  0  1       1 -1  0   1  0  0   1  0 -1
                       0  0  1   0  1  0   1  0  0       0  0 -1   0 -1  0  -1  0  0
                       1 -1  0   0 -1  0   0 -1  1      -1  1  0   0  1  0   0  1 -1
                       0  0 -1   1  0 -1   0  1 -1       0  0  1  -1  0  1   0 -1  1
                      -1  1  0  -1  0  1  -1  0  0       1 -1  0   1  0 -1   1  0  0
           tolwfr      1.00000000E-16
            typat      1  2
           xangst      0.0000000000E+00  0.0000000000E+00  0.0000000000E+00
                      -2.0382518572E+00  0.0000000000E+00  0.0000000000E+00
            xcart      0.0000000000E+00  0.0000000000E+00  0.0000000000E+00
                      -3.8517378000E+00  0.0000000000E+00  0.0000000000E+00
             xred      0.0000000000E+00  0.0000000000E+00  0.0000000000E+00
                       5.0000000000E-01 -5.0000000000E-01 -5.0000000000E-01
            znucl        3.00000    9.00000

================================================================================


- Timing analysis has been suppressed with timopt=0



================================================================================

 Suggested references for the acknowledgment of ABINIT usage.

 The users of ABINIT have little formal obligations with respect to the ABINIT group
 (those specified in the GNU General Public License, http://www.gnu.org/copyleft/gpl.txt).
 However, it is common practice in the scientific literature,
 to acknowledge the efforts of people that have made the research possible.
 In this spirit, please find below suggested citations of work written by ABINIT developers,
 corresponding to implementations inside of ABINIT that you have used in the present run.
 Note also that it will be of great value to readers of publications presenting these results,
 to read papers enabling them to understand the theoretical formalism and details
 of the ABINIT implementation.
 For information on why they are suggested, see also http://www.abinit.org/about/?text=acknowledgments.

 [1] ABINIT : First-principles approach of materials and nanosystem properties.
 X. Gonze, B. Amadon, P.-M. Anglade, J.-M. Beuken, F. Bottin, P. Boulanger, F. Bruneval,
 D. Caliste, R. Caracas, M. Cote, T. Deutsch, L. Genovese, Ph. Ghosez, M. Giantomassi
 S. Goedecker, D.R. Hamann, P. Hermet, F. Jollet, G. Jomard, S. Leroux, M. Mancini, S. Mazevet,
 M.J.T. Oliveira, G. Onida, Y. Pouillon, T. Rangel, G.-M. Rignanese, D. Sangalli, R. Shaltaf,
 M. Torrent, M.J. Verstraete, G. Zerah, J.W. Zwanziger
 Computer Phys. Comm. 180, 2582-2615 (2009).
 Comment : the third generic paper describing the ABINIT project.
 Note that a version of this paper, that is not formatted for Computer Phys. Comm. 
 is available at http://www.abinit.org/about/ABINIT_CPC_v10.pdf .
 The licence allows the authors to put it on the Web.

 [2] A brief introduction to the ABINIT software package.
 X. Gonze, G.-M. Rignanese, M. Verstraete, J.-M. Beuken, Y. Pouillon, R. Caracas, F. Jollet,
 M. Torrent, G. Zerah, M. Mikami, Ph. Ghosez, M. Veithen, J.-Y. Raty, V. Olevano, F. Bruneval,
 L. Reining, R. Godby, G. Onida, D.R. Hamann, and D.C. Allan.
 Z. Kristallogr. 220, 558-562 (2005).
 Comment : the second generic paper describing the ABINIT project. Note that this paper
 should be cited especially if you are using the GW part of ABINIT, as several authors
 of this part are not in the list of authors of the first or third paper.
 The .pdf of the latter paper is available at http://www.abinit.org/about/zfk_0505-06_558-562.pdf.
 Note that it should not redistributed (Copyright by Oldenburg Wissenshaftverlag,
 the licence allows the authors to put it on the Web).


 And optionally :

 [3] First-principles computation of material properties : the ABINIT software project. 
 X. Gonze, J.-M. Beuken, R. Caracas, F. Detraux, M. Fuchs, G.-M. Rignanese, L. Sindic,
 M. Verstraete, G. Zerah, F. Jollet, M. Torrent, A. Roy, M. Mikami, Ph. Ghosez, J.-Y. Raty, D.C. Allan.
 Computational Materials Science 25, 478-492 (2002). http://dx.doi.org/10.1016/S0927-0256(02)00325-7
 Comment : the original paper describing the ABINIT project.

 [4] Fast radix 2, 3, 4 and 5 kernels for Fast Fourier Transformations
 on computers with overlapping multiply-add instructions.
 S. Goedecker, SIAM J. on Scientific Computing 18, 1605 (1997).
-
- Proc.   0 individual time (sec): cpu=         51.5  wall=         52.0

================================================================================

 Calculation completed.
.Delivered   15 WARNINGs and   2 COMMENTs to log file.
+Overall time at end (sec) : cpu=         51.5  wall=         52.0
