
     Program PWSCF v.6.5 starts on 27Mar2021 at 17:26:11 

     This program is part of the open-source Quantum ESPRESSO suite
     for quantum simulation of materials; please cite
         "P. Giannozzi et al., J. Phys.:Condens. Matter 21 395502 (2009);
         "P. Giannozzi et al., J. Phys.:Condens. Matter 29 465901 (2017);
          URL http://www.quantum-espresso.org", 
     in publications or presentations arising from this work. More details at
     http://www.quantum-espresso.org/quote

     Parallel version (MPI), running on     1 processors

     MPI processes distributed on     1 nodes
     Waiting for input...
     Reading input from standard input

     Current dimensions of program PWSCF are:
     Max number of different atomic species (ntypx) = 10
     Max number of k-points (npk) =  40000
     Max angular momentum in pseudopotentials (lmaxx) =  3
               file H.pbe-mt_fhi.UPF: wavefunction(s)  2p 4f renormalized
               file C.pbe-mt_fhi.UPF: wavefunction(s)  4f renormalized

     gamma-point specific algorithms are used

     Subspace diagonalization in iterative solution of the eigenvalue problem:
     a serial algorithm will be used


     G-vector sticks info
     --------------------
     sticks:   dense  smooth     PW     G-vecs:    dense   smooth      PW
     Sum        8863    8863   2221               551097   551097   69041


     Title: 
     CH4_3dist                                                                  


     bravais-lattice index     =            2
     lattice parameter (alat)  =      40.1006  a.u.
     unit-cell volume          =   16120.9920 (a.u.)^3
     number of atoms/cell      =            5
     number of atomic types    =            2
     number of electrons       =         8.00
     number of Kohn-Sham states=           10
     kinetic-energy cutoff     =      40.0000  Ry
     charge density cutoff     =     160.0000  Ry
     convergence threshold     =      1.0E-06
     mixing beta               =       0.7000
     number of iterations used =            8  plain     mixing
     Exchange-correlation= PBE
                           (   1   4   3   4   0   0   0)

     celldm(1)=  40.100574  celldm(2)=   0.000000  celldm(3)=   0.000000
     celldm(4)=   0.000000  celldm(5)=   0.000000  celldm(6)=   0.000000

     crystal axes: (cart. coord. in units of alat)
               a(1) = (  -0.500000   0.000000   0.500000 )  
               a(2) = (   0.000000   0.500000   0.500000 )  
               a(3) = (  -0.500000   0.500000   0.000000 )  

     reciprocal axes: (cart. coord. in units 2 pi/alat)
               b(1) = ( -1.000000 -1.000000  1.000000 )  
               b(2) = (  1.000000  1.000000  1.000000 )  
               b(3) = ( -1.000000  1.000000 -1.000000 )  


     PseudoPot. # 1 for H  read from file:
     ../../psp/H.pbe-mt_fhi.UPF
     MD5 check sum: a19bd5488733b3d98581df861506e80d
     Pseudo is Norm-conserving, Zval =  1.0
     Generated using FHI98PP, converted with fhi2upf.x v.5.0.2
     Using radial grid of  387 points,  3 beta functions with: 
                l(1) =   0
                l(2) =   1
                l(3) =   3

     PseudoPot. # 2 for C  read from file:
     ../../psp/C.pbe-mt_fhi.UPF
     MD5 check sum: 058ca341f9d6d5327d9962fd88a91b65
     Pseudo is Norm-conserving, Zval =  4.0
     Generated using FHI98PP, converted with fhi2upf.x v.5.0.2
     Using radial grid of  461 points,  3 beta functions with: 
                l(1) =   0
                l(2) =   1
                l(3) =   3

     atomic species   valence    mass     pseudopotential
        H              1.00     1.00794     H ( 1.00)
        C              4.00    12.01070     C ( 1.00)

     No symmetry found



   Cartesian axes

     site n.     atom                  positions (alat units)
         1           C   tau(   1) = (   0.0000000   0.0000000   0.0000000  )
         2           H   tau(   2) = (   0.0349901   0.0349901   0.0349901  )
         3           H   tau(   3) = (  -0.0286282  -0.0286282   0.0286282  )
         4           H   tau(   4) = (   0.0381710  -0.0381710  -0.0381710  )
         5           H   tau(   5) = (  -0.0318091   0.0318091  -0.0318091  )

     number of k points=     1  Methfessel-Paxton smearing, width (Ry)=  0.0007
                       cart. coord. in units 2pi/alat
        k(    1) = (   0.0000000   0.0000000   0.0000000), wk =   2.0000000

     Dense  grid:   275549 G-vectors     FFT dimensions: ( 120, 120, 120)

     Estimated max dynamical RAM per process >     365.18 MB

     Initial potential from superposition of free atoms

     starting charge    7.99992, renormalised to    8.00000

     negative rho (up, down):  1.166E-03 0.000E+00
     Starting wfcs are   80 randomized atomic wfcs

     total cpu time spent up to now is        4.9 secs

     Self-consistent Calculation

     iteration #  1     ecut=    40.00 Ry     beta= 0.70
     Davidson diagonalization with overlap
     ethr =  1.00E-02,  avg # of iterations =  5.0

     negative rho (up, down):  3.322E-04 0.000E+00

     total cpu time spent up to now is        7.3 secs

     total energy              =     -15.88860601 Ry
     Harris-Foulkes estimate   =     -16.21513630 Ry
     estimated scf accuracy    <       0.48516481 Ry

     iteration #  2     ecut=    40.00 Ry     beta= 0.70
     Davidson diagonalization with overlap
     ethr =  6.06E-03,  avg # of iterations =  3.0

     negative rho (up, down):  1.941E-04 0.000E+00

     total cpu time spent up to now is        9.3 secs

     total energy              =     -15.98229114 Ry
     Harris-Foulkes estimate   =     -16.14509325 Ry
     estimated scf accuracy    <       0.33762181 Ry

     iteration #  3     ecut=    40.00 Ry     beta= 0.70
     Davidson diagonalization with overlap
     ethr =  4.22E-03,  avg # of iterations =  2.0

     negative rho (up, down):  6.096E-06 0.000E+00

     total cpu time spent up to now is       11.0 secs

     total energy              =     -16.04791319 Ry
     Harris-Foulkes estimate   =     -16.05029242 Ry
     estimated scf accuracy    <       0.00503275 Ry

     iteration #  4     ecut=    40.00 Ry     beta= 0.70
     Davidson diagonalization with overlap
     ethr =  6.29E-05,  avg # of iterations = 12.0

     negative rho (up, down):  7.367E-06 0.000E+00

     total cpu time spent up to now is       14.7 secs

     total energy              =     -16.04923362 Ry
     Harris-Foulkes estimate   =     -16.04932793 Ry
     estimated scf accuracy    <       0.00021788 Ry

     iteration #  5     ecut=    40.00 Ry     beta= 0.70
     Davidson diagonalization with overlap
     c_bands:  1 eigenvalues not converged
     ethr =  2.72E-06,  avg # of iterations = 20.0

     negative rho (up, down):  1.500E-07 0.000E+00

     total cpu time spent up to now is       18.2 secs

     total energy              =     -16.04924677 Ry
     Harris-Foulkes estimate   =     -16.04924857 Ry
     estimated scf accuracy    <       0.00001042 Ry

     iteration #  6     ecut=    40.00 Ry     beta= 0.70
     Davidson diagonalization with overlap
     ethr =  1.30E-07,  avg # of iterations = 13.0

     total cpu time spent up to now is       20.7 secs

     total energy              =     -16.04924829 Ry
     Harris-Foulkes estimate   =     -16.04924913 Ry
     estimated scf accuracy    <       0.00000168 Ry

     iteration #  7     ecut=    40.00 Ry     beta= 0.70
     Davidson diagonalization with overlap
     ethr =  2.10E-08,  avg # of iterations =  2.0

     total cpu time spent up to now is       22.3 secs

     End of self-consistent calculation

          k = 0.0000 0.0000 0.0000 ( 34521 PWs)   bands (ev):

   -16.3000  -9.5156  -8.8960  -8.3597  -0.7624   0.2232   0.4625   0.6002
     0.6326   0.8191

     the Fermi energy is    -7.7404 ev

!    total energy              =     -16.04924844 Ry
     Harris-Foulkes estimate   =     -16.04924848 Ry
     estimated scf accuracy    <       0.00000004 Ry

     The total energy is the sum of the following terms:

     one-electron contribution =     -41.21247967 Ry
     hartree contribution      =      21.34833840 Ry
     xc contribution           =      -6.04033622 Ry
     ewald contribution        =       9.85522906 Ry
     smearing contrib. (-TS)   =       0.00000000 Ry

     convergence has been achieved in   7 iterations

     Forces acting on atoms (cartesian axes, Ry/au):

     atom    1 type  2   force =     0.14746253    0.06448792   -0.08376599
     atom    2 type  1   force =    -0.07941590   -0.08525125   -0.08807888
     atom    3 type  1   force =    -0.02414586   -0.03527548    0.02986233
     atom    4 type  1   force =    -0.09807459    0.10195689    0.10007776
     atom    5 type  1   force =     0.05417382   -0.04591808    0.04190478

     Total force =     0.306269     Total SCF correction =     0.000112

     Writing output data file ./CH4_3dist.save/

     init_run     :      4.64s CPU      4.85s WALL (       1 calls)
     electrons    :     16.91s CPU     17.40s WALL (       1 calls)
     forces       :      0.44s CPU      0.45s WALL (       1 calls)

     Called by init_run:
     wfcinit      :      3.89s CPU      3.96s WALL (       1 calls)
     potinit      :      0.52s CPU      0.65s WALL (       1 calls)
     hinit0       :      0.13s CPU      0.15s WALL (       1 calls)

     Called by electrons:
     c_bands      :     11.73s CPU     11.78s WALL (       7 calls)
     sum_band     :      1.58s CPU      1.58s WALL (       7 calls)
     v_of_rho     :      3.57s CPU      4.03s WALL (       8 calls)
     mix_rho      :      0.40s CPU      0.40s WALL (       7 calls)

     Called by c_bands:
     init_us_2    :      0.17s CPU      0.18s WALL (      15 calls)
     regterg      :     11.46s CPU     11.50s WALL (       7 calls)

     Called by sum_band:

     Called by *egterg:
     h_psi        :     12.45s CPU     12.52s WALL (      65 calls)
     g_psi        :      0.02s CPU      0.02s WALL (      57 calls)
     rdiaghg      :      0.01s CPU      0.01s WALL (      64 calls)

     Called by h_psi:
     h_psi:calbec :      1.60s CPU      1.61s WALL (      65 calls)
     vloc_psi     :      9.80s CPU      9.86s WALL (      65 calls)
     add_vuspsi   :      1.02s CPU      1.03s WALL (      65 calls)

     General routines
     calbec       :      1.78s CPU      1.79s WALL (      69 calls)
     fft          :      2.44s CPU      2.44s WALL (      65 calls)
     ffts         :      0.27s CPU      0.28s WALL (       7 calls)
     fftw         :      9.70s CPU      9.75s WALL (     425 calls)

     Parallel routines

     PWSCF        :     22.08s CPU     22.81s WALL


   This run was terminated on:  17:26:33  27Mar2021            

=------------------------------------------------------------------------------=
   JOB DONE.
=------------------------------------------------------------------------------=
