<UPF version="2.0.1">
  <PP_INFO>

 This pseudopotential file has been produced using the code
 ONCVPSP  (Optimized Norm-Conservinng Vanderbilt PSeudopotential)
 scalar-relativistic version 3.1.1 04/06/2015 by D. R. Hamann
 The code is available through a link at URL www.mat-simresearch.com.
 Documentation with the package provides a full discription of the
 input data below.


 While it is not required under the terms of the GNU GPL, it is
 suggested that you cite D. R. Hamann, Phys. Rev. B 88, 085117 (2013)
 in any publication using these pseudopotentials.

    <PP_INPUTFILE>
# ATOM AND REFERENCE CONFIGURATION
# atsym  z   nc   nv     iexc    psfile
  Co 27.00    3    5       3      upf
#
#   n    l    f        energy (Ha)
    1    0    2.00
    2    0    2.00
    2    1    6.00
    3    0    2.00
    3    1    6.00
    3    2    7.00
    4    0    1.00
    4    1    1.00
#
# PSEUDOPOTENTIAL AND OPTIMIZATION
# lmax
    2
#
#   l,   rc,     ep,   ncon, nbas, qcut
    0    1.92   -3.81    5    8    7.00
    1    2.11   -2.48    5    8    8.00
    2    2.11   -0.38    5    9    9.00
#
# LOCAL POTENTIAL
# lloc, lpopt,  rc(5),   dvloc0
    4    5      1.92       0.00
#
# VANDERBILT-KLEINMAN-BYLANDER PROJECTORs
# l, nproj, debl
    0    2    3.5600
    1    2    2.3922
    2    2    1.0000
#
# MODEL CORE CHARGE
# icmod, fcfact
    0    0.00
#
# LOG DERIVATIVE ANALYSIS
# epsh1, epsh2, depsh
   -5.00    2.00    0.02
#
# OUTPUT GRID
# rlmax, drl
    6.00    0.01
#
# TEST CONFIGURATIONS
# ncnf
    4
# nvcnf
#   n    l    f
    3
    3    0    2.00
    3    1    6.00
    3    2    7.00
#
    4
    3    0    2.00
    3    1    6.00
    3    2    7.00
    4    0    1.00
#
    5
    3    0    2.00
    3    1    6.00
    3    2    7.00
    4    0    1.00
    4    1    1.00
#
    3
    3    0    2.00
    3    1    6.00
    3    2    8.00
#
    </PP_INPUTFILE>
  </PP_INFO>
  <!--                               -->
  <!-- END OF HUMAN READABLE SECTION -->
  <!--                               -->
    <PP_HEADER
       generated="Generated using ONCVPSP code by D. R. Hamann"
       author="anonymous"
       date="150622"
       comment=""
       element="Co"
       pseudo_type="NC"
       relativistic="scalar"
       is_ultrasoft="F"
       is_paw="F"
       is_coulomb="F"
       has_so="F"
       has_wfc="F"
       has_gipaw="F"
       core_correction="F"
       functional="PZ"
       z_valence="   17.00"
       total_psenergy="  -1.36558247989E+02"
       rho_cutoff="   5.99000000000E+00"
       l_max="2"
       l_local="-1"
       mesh_size="   600"
       number_of_wfc="5"
       number_of_proj="6"/>
 <PP_MESH>
   <PP_R type="real"  size=" 600" columns="8">
    0.0000    0.0100    0.0200    0.0300    0.0400    0.0500    0.0600    0.0700
    0.0800    0.0900    0.1000    0.1100    0.1200    0.1300    0.1400    0.1500
    0.1600    0.1700    0.1800    0.1900    0.2000    0.2100    0.2200    0.2300
    0.2400    0.2500    0.2600    0.2700    0.2800    0.2900    0.3000    0.3100
    0.3200    0.3300    0.3400    0.3500    0.3600    0.3700    0.3800    0.3900
    0.4000    0.4100    0.4200    0.4300    0.4400    0.4500    0.4600    0.4700
    0.4800    0.4900    0.5000    0.5100    0.5200    0.5300    0.5400    0.5500
    0.5600    0.5700    0.5800    0.5900    0.6000    0.6100    0.6200    0.6300
    0.6400    0.6500    0.6600    0.6700    0.6800    0.6900    0.7000    0.7100
    0.7200    0.7300    0.7400    0.7500    0.7600    0.7700    0.7800    0.7900
    0.8000    0.8100    0.8200    0.8300    0.8400    0.8500    0.8600    0.8700
    0.8800    0.8900    0.9000    0.9100    0.9200    0.9300    0.9400    0.9500
    0.9600    0.9700    0.9800    0.9900    1.0000    1.0100    1.0200    1.0300
    1.0400    1.0500    1.0600    1.0700    1.0800    1.0900    1.1000    1.1100
    1.1200    1.1300    1.1400    1.1500    1.1600    1.1700    1.1800    1.1900
    1.2000    1.2100    1.2200    1.2300    1.2400    1.2500    1.2600    1.2700
    1.2800    1.2900    1.3000    1.3100    1.3200    1.3300    1.3400    1.3500
    1.3600    1.3700    1.3800    1.3900    1.4000    1.4100    1.4200    1.4300
    1.4400    1.4500    1.4600    1.4700    1.4800    1.4900    1.5000    1.5100
    1.5200    1.5300    1.5400    1.5500    1.5600    1.5700    1.5800    1.5900
    1.6000    1.6100    1.6200    1.6300    1.6400    1.6500    1.6600    1.6700
    1.6800    1.6900    1.7000    1.7100    1.7200    1.7300    1.7400    1.7500
    1.7600    1.7700    1.7800    1.7900    1.8000    1.8100    1.8200    1.8300
    1.8400    1.8500    1.8600    1.8700    1.8800    1.8900    1.9000    1.9100
    1.9200    1.9300    1.9400    1.9500    1.9600    1.9700    1.9800    1.9900
    2.0000    2.0100    2.0200    2.0300    2.0400    2.0500    2.0600    2.0700
    2.0800    2.0900    2.1000    2.1100    2.1200    2.1300    2.1400    2.1500
    2.1600    2.1700    2.1800    2.1900    2.2000    2.2100    2.2200    2.2300
    2.2400    2.2500    2.2600    2.2700    2.2800    2.2900    2.3000    2.3100
    2.3200    2.3300    2.3400    2.3500    2.3600    2.3700    2.3800    2.3900
    2.4000    2.4100    2.4200    2.4300    2.4400    2.4500    2.4600    2.4700
    2.4800    2.4900    2.5000    2.5100    2.5200    2.5300    2.5400    2.5500
    2.5600    2.5700    2.5800    2.5900    2.6000    2.6100    2.6200    2.6300
    2.6400    2.6500    2.6600    2.6700    2.6800    2.6900    2.7000    2.7100
    2.7200    2.7300    2.7400    2.7500    2.7600    2.7700    2.7800    2.7900
    2.8000    2.8100    2.8200    2.8300    2.8400    2.8500    2.8600    2.8700
    2.8800    2.8900    2.9000    2.9100    2.9200    2.9300    2.9400    2.9500
    2.9600    2.9700    2.9800    2.9900    3.0000    3.0100    3.0200    3.0300
    3.0400    3.0500    3.0600    3.0700    3.0800    3.0900    3.1000    3.1100
    3.1200    3.1300    3.1400    3.1500    3.1600    3.1700    3.1800    3.1900
    3.2000    3.2100    3.2200    3.2300    3.2400    3.2500    3.2600    3.2700
    3.2800    3.2900    3.3000    3.3100    3.3200    3.3300    3.3400    3.3500
    3.3600    3.3700    3.3800    3.3900    3.4000    3.4100    3.4200    3.4300
    3.4400    3.4500    3.4600    3.4700    3.4800    3.4900    3.5000    3.5100
    3.5200    3.5300    3.5400    3.5500    3.5600    3.5700    3.5800    3.5900
    3.6000    3.6100    3.6200    3.6300    3.6400    3.6500    3.6600    3.6700
    3.6800    3.6900    3.7000    3.7100    3.7200    3.7300    3.7400    3.7500
    3.7600    3.7700    3.7800    3.7900    3.8000    3.8100    3.8200    3.8300
    3.8400    3.8500    3.8600    3.8700    3.8800    3.8900    3.9000    3.9100
    3.9200    3.9300    3.9400    3.9500    3.9600    3.9700    3.9800    3.9900
    4.0000    4.0100    4.0200    4.0300    4.0400    4.0500    4.0600    4.0700
    4.0800    4.0900    4.1000    4.1100    4.1200    4.1300    4.1400    4.1500
    4.1600    4.1700    4.1800    4.1900    4.2000    4.2100    4.2200    4.2300
    4.2400    4.2500    4.2600    4.2700    4.2800    4.2900    4.3000    4.3100
    4.3200    4.3300    4.3400    4.3500    4.3600    4.3700    4.3800    4.3900
    4.4000    4.4100    4.4200    4.4300    4.4400    4.4500    4.4600    4.4700
    4.4800    4.4900    4.5000    4.5100    4.5200    4.5300    4.5400    4.5500
    4.5600    4.5700    4.5800    4.5900    4.6000    4.6100    4.6200    4.6300
    4.6400    4.6500    4.6600    4.6700    4.6800    4.6900    4.7000    4.7100
    4.7200    4.7300    4.7400    4.7500    4.7600    4.7700    4.7800    4.7900
    4.8000    4.8100    4.8200    4.8300    4.8400    4.8500    4.8600    4.8700
    4.8800    4.8900    4.9000    4.9100    4.9200    4.9300    4.9400    4.9500
    4.9600    4.9700    4.9800    4.9900    5.0000    5.0100    5.0200    5.0300
    5.0400    5.0500    5.0600    5.0700    5.0800    5.0900    5.1000    5.1100
    5.1200    5.1300    5.1400    5.1500    5.1600    5.1700    5.1800    5.1900
    5.2000    5.2100    5.2200    5.2300    5.2400    5.2500    5.2600    5.2700
    5.2800    5.2900    5.3000    5.3100    5.3200    5.3300    5.3400    5.3500
    5.3600    5.3700    5.3800    5.3900    5.4000    5.4100    5.4200    5.4300
    5.4400    5.4500    5.4600    5.4700    5.4800    5.4900    5.5000    5.5100
    5.5200    5.5300    5.5400    5.5500    5.5600    5.5700    5.5800    5.5900
    5.6000    5.6100    5.6200    5.6300    5.6400    5.6500    5.6600    5.6700
    5.6800    5.6900    5.7000    5.7100    5.7200    5.7300    5.7400    5.7500
    5.7600    5.7700    5.7800    5.7900    5.8000    5.8100    5.8200    5.8300
    5.8400    5.8500    5.8600    5.8700    5.8800    5.8900    5.9000    5.9100
    5.9200    5.9300    5.9400    5.9500    5.9600    5.9700    5.9800    5.9900
   </PP_R>
   <PP_RAB type="real"  size=" 600" columns="8">
    0.0100    0.0100    0.0100    0.0100    0.0100    0.0100    0.0100    0.0100
    0.0100    0.0100    0.0100    0.0100    0.0100    0.0100    0.0100    0.0100
    0.0100    0.0100    0.0100    0.0100    0.0100    0.0100    0.0100    0.0100
    0.0100    0.0100    0.0100    0.0100    0.0100    0.0100    0.0100    0.0100
    0.0100    0.0100    0.0100    0.0100    0.0100    0.0100    0.0100    0.0100
    0.0100    0.0100    0.0100    0.0100    0.0100    0.0100    0.0100    0.0100
    0.0100    0.0100    0.0100    0.0100    0.0100    0.0100    0.0100    0.0100
    0.0100    0.0100    0.0100    0.0100    0.0100    0.0100    0.0100    0.0100
    0.0100    0.0100    0.0100    0.0100    0.0100    0.0100    0.0100    0.0100
    0.0100    0.0100    0.0100    0.0100    0.0100    0.0100    0.0100    0.0100
    0.0100    0.0100    0.0100    0.0100    0.0100    0.0100    0.0100    0.0100
    0.0100    0.0100    0.0100    0.0100    0.0100    0.0100    0.0100    0.0100
    0.0100    0.0100    0.0100    0.0100    0.0100    0.0100    0.0100    0.0100
    0.0100    0.0100    0.0100    0.0100    0.0100    0.0100    0.0100    0.0100
    0.0100    0.0100    0.0100    0.0100    0.0100    0.0100    0.0100    0.0100
    0.0100    0.0100    0.0100    0.0100    0.0100    0.0100    0.0100    0.0100
    0.0100    0.0100    0.0100    0.0100    0.0100    0.0100    0.0100    0.0100
    0.0100    0.0100    0.0100    0.0100    0.0100    0.0100    0.0100    0.0100
    0.0100    0.0100    0.0100    0.0100    0.0100    0.0100    0.0100    0.0100
    0.0100    0.0100    0.0100    0.0100    0.0100    0.0100    0.0100    0.0100
    0.0100    0.0100    0.0100    0.0100    0.0100    0.0100    0.0100    0.0100
    0.0100    0.0100    0.0100    0.0100    0.0100    0.0100    0.0100    0.0100
    0.0100    0.0100    0.0100    0.0100    0.0100    0.0100    0.0100    0.0100
    0.0100    0.0100    0.0100    0.0100    0.0100    0.0100    0.0100    0.0100
    0.0100    0.0100    0.0100    0.0100    0.0100    0.0100    0.0100    0.0100
    0.0100    0.0100    0.0100    0.0100    0.0100    0.0100    0.0100    0.0100
    0.0100    0.0100    0.0100    0.0100    0.0100    0.0100    0.0100    0.0100
    0.0100    0.0100    0.0100    0.0100    0.0100    0.0100    0.0100    0.0100
    0.0100    0.0100    0.0100    0.0100    0.0100    0.0100    0.0100    0.0100
    0.0100    0.0100    0.0100    0.0100    0.0100    0.0100    0.0100    0.0100
    0.0100    0.0100    0.0100    0.0100    0.0100    0.0100    0.0100    0.0100
    0.0100    0.0100    0.0100    0.0100    0.0100    0.0100    0.0100    0.0100
    0.0100    0.0100    0.0100    0.0100    0.0100    0.0100    0.0100    0.0100
    0.0100    0.0100    0.0100    0.0100    0.0100    0.0100    0.0100    0.0100
    0.0100    0.0100    0.0100    0.0100    0.0100    0.0100    0.0100    0.0100
    0.0100    0.0100    0.0100    0.0100    0.0100    0.0100    0.0100    0.0100
    0.0100    0.0100    0.0100    0.0100    0.0100    0.0100    0.0100    0.0100
    0.0100    0.0100    0.0100    0.0100    0.0100    0.0100    0.0100    0.0100
    0.0100    0.0100    0.0100    0.0100    0.0100    0.0100    0.0100    0.0100
    0.0100    0.0100    0.0100    0.0100    0.0100    0.0100    0.0100    0.0100
    0.0100    0.0100    0.0100    0.0100    0.0100    0.0100    0.0100    0.0100
    0.0100    0.0100    0.0100    0.0100    0.0100    0.0100    0.0100    0.0100
    0.0100    0.0100    0.0100    0.0100    0.0100    0.0100    0.0100    0.0100
    0.0100    0.0100    0.0100    0.0100    0.0100    0.0100    0.0100    0.0100
    0.0100    0.0100    0.0100    0.0100    0.0100    0.0100    0.0100    0.0100
    0.0100    0.0100    0.0100    0.0100    0.0100    0.0100    0.0100    0.0100
    0.0100    0.0100    0.0100    0.0100    0.0100    0.0100    0.0100    0.0100
    0.0100    0.0100    0.0100    0.0100    0.0100    0.0100    0.0100    0.0100
    0.0100    0.0100    0.0100    0.0100    0.0100    0.0100    0.0100    0.0100
    0.0100    0.0100    0.0100    0.0100    0.0100    0.0100    0.0100    0.0100
    0.0100    0.0100    0.0100    0.0100    0.0100    0.0100    0.0100    0.0100
    0.0100    0.0100    0.0100    0.0100    0.0100    0.0100    0.0100    0.0100
    0.0100    0.0100    0.0100    0.0100    0.0100    0.0100    0.0100    0.0100
    0.0100    0.0100    0.0100    0.0100    0.0100    0.0100    0.0100    0.0100
    0.0100    0.0100    0.0100    0.0100    0.0100    0.0100    0.0100    0.0100
    0.0100    0.0100    0.0100    0.0100    0.0100    0.0100    0.0100    0.0100
    0.0100    0.0100    0.0100    0.0100    0.0100    0.0100    0.0100    0.0100
    0.0100    0.0100    0.0100    0.0100    0.0100    0.0100    0.0100    0.0100
    0.0100    0.0100    0.0100    0.0100    0.0100    0.0100    0.0100    0.0100
    0.0100    0.0100    0.0100    0.0100    0.0100    0.0100    0.0100    0.0100
    0.0100    0.0100    0.0100    0.0100    0.0100    0.0100    0.0100    0.0100
    0.0100    0.0100    0.0100    0.0100    0.0100    0.0100    0.0100    0.0100
    0.0100    0.0100    0.0100    0.0100    0.0100    0.0100    0.0100    0.0100
    0.0100    0.0100    0.0100    0.0100    0.0100    0.0100    0.0100    0.0100
    0.0100    0.0100    0.0100    0.0100    0.0100    0.0100    0.0100    0.0100
    0.0100    0.0100    0.0100    0.0100    0.0100    0.0100    0.0100    0.0100
    0.0100    0.0100    0.0100    0.0100    0.0100    0.0100    0.0100    0.0100
    0.0100    0.0100    0.0100    0.0100    0.0100    0.0100    0.0100    0.0100
    0.0100    0.0100    0.0100    0.0100    0.0100    0.0100    0.0100    0.0100
    0.0100    0.0100    0.0100    0.0100    0.0100    0.0100    0.0100    0.0100
    0.0100    0.0100    0.0100    0.0100    0.0100    0.0100    0.0100    0.0100
    0.0100    0.0100    0.0100    0.0100    0.0100    0.0100    0.0100    0.0100
    0.0100    0.0100    0.0100    0.0100    0.0100    0.0100    0.0100    0.0100
    0.0100    0.0100    0.0100    0.0100    0.0100    0.0100    0.0100    0.0100
    0.0100    0.0100    0.0100    0.0100    0.0100    0.0100    0.0100    0.0100
   </PP_RAB>
 </PP_MESH>
  <PP_LOCAL type="real"  size=" 600" columns="4">
   -4.3744725457E+01   -4.3743284009E+01   -4.3738960469E+01   -4.3731757262E+01
   -4.3721678365E+01   -4.3708729228E+01   -4.3692916655E+01   -4.3674248664E+01
   -4.3652734318E+01   -4.3628383543E+01   -4.3601206929E+01   -4.3571215523E+01
   -4.3538420622E+01   -4.3502833560E+01   -4.3464465514E+01   -4.3423327301E+01
   -4.3379429214E+01   -4.3332780849E+01   -4.3283390971E+01   -4.3231267397E+01
   -4.3176416889E+01   -4.3118845095E+01   -4.3058556487E+01   -4.2995554347E+01
   -4.2929840760E+01   -4.2861416638E+01   -4.2790281763E+01   -4.2716434852E+01
   -4.2639873642E+01   -4.2560594989E+01   -4.2478594990E+01   -4.2393869113E+01
   -4.2306412346E+01   -4.2216219353E+01   -4.2123284641E+01   -4.2027602738E+01
   -4.1929168375E+01   -4.1827976672E+01   -4.1724023332E+01   -4.1617304829E+01
   -4.1507818606E+01   -4.1395563267E+01   -4.1280538760E+01   -4.1162746573E+01
   -4.1042189908E+01   -4.0918873855E+01   -4.0792805564E+01   -4.0663994398E+01
   -4.0532452082E+01   -4.0398192844E+01   -4.0261233536E+01   -4.0121593751E+01
   -3.9979295918E+01   -3.9834365395E+01   -3.9686830535E+01   -3.9536722745E+01
   -3.9384076526E+01   -3.9228929501E+01   -3.9071322421E+01   -3.8911299165E+01
   -3.8748906714E+01   -3.8584195116E+01   -3.8417217434E+01   -3.8248029678E+01
   -3.8076690724E+01   -3.7903262218E+01   -3.7727808468E+01   -3.7550396323E+01
   -3.7371095038E+01   -3.7189976128E+01   -3.7007113220E+01   -3.6822581885E+01
   -3.6636459464E+01   -3.6448824896E+01   -3.6259758526E+01   -3.6069341923E+01
   -3.5877657679E+01   -3.5684789218E+01   -3.5490820595E+01   -3.5295836301E+01
   -3.5099921062E+01   -3.4903159645E+01   -3.4705636663E+01   -3.4507436384E+01
   -3.4308642550E+01   -3.4109338191E+01   -3.3909605455E+01   -3.3709525438E+01
   -3.3509178029E+01   -3.3308641751E+01   -3.3107993627E+01   -3.2907309043E+01
   -3.2706661622E+01   -3.2506123114E+01   -3.2305763293E+01   -3.2105649861E+01
   -3.1905848370E+01   -3.1706422147E+01   -3.1507432234E+01   -3.1308937339E+01
   -3.1110993797E+01   -3.0913655538E+01   -3.0716974066E+01   -3.0520998456E+01
   -3.0325775346E+01   -3.0131348950E+01   -2.9937761075E+01   -2.9745051143E+01
   -2.9553256228E+01   -2.9362411094E+01   -2.9172548242E+01   -2.8983697963E+01
   -2.8795888397E+01   -2.8609145597E+01   -2.8423493593E+01   -2.8238954471E+01
   -2.8055548442E+01   -2.7873293923E+01   -2.7692207618E+01   -2.7512304598E+01
   -2.7333598388E+01   -2.7156101047E+01   -2.6979823259E+01   -2.6804774411E+01
   -2.6630962681E+01   -2.6458395122E+01   -2.6287077741E+01   -2.6117015583E+01
   -2.5948212806E+01   -2.5780672759E+01   -2.5614398055E+01   -2.5449390642E+01
   -2.5285651871E+01   -2.5123182821E+01   -2.4961982829E+01   -2.4802051004E+01
   -2.4643399721E+01   -2.4486006256E+01   -2.4329818595E+01   -2.4174871076E+01
   -2.4021212741E+01   -2.3868826479E+01   -2.3717700446E+01   -2.3567837597E+01
   -2.3419236212E+01   -2.3271893892E+01   -2.3125808675E+01   -2.2980978502E+01
   -2.2837401286E+01   -2.2695074914E+01   -2.2553997246E+01   -2.2414166121E+01
   -2.2275579344E+01   -2.2138234682E+01   -2.2002129856E+01   -2.1867262529E+01
   -2.1733630293E+01   -2.1601230653E+01   -2.1470061012E+01   -2.1340118655E+01
   -2.1211400730E+01   -2.1083904231E+01   -2.0957625977E+01   -2.0832562595E+01
   -2.0708710502E+01   -2.0586065883E+01   -2.0464624678E+01   -2.0344382557E+01
   -2.0225334912E+01   -2.0107476833E+01   -1.9990803098E+01   -1.9875308155E+01
   -1.9760986111E+01   -1.9647830720E+01   -1.9535835369E+01   -1.9424993071E+01
   -1.9315296454E+01   -1.9206737755E+01   -1.9099308812E+01   -1.8993001058E+01
   -1.8887805517E+01   -1.8783712799E+01   -1.8680713098E+01   -1.8578796191E+01
   -1.8477951432E+01   -1.8378167757E+01   -1.8279433677E+01   -1.8181737290E+01
   -1.8085066254E+01   -1.7989407846E+01   -1.7894748920E+01   -1.7801075818E+01
   -1.7708374521E+01   -1.7616630830E+01   -1.7525830514E+01   -1.7435959446E+01
   -1.7347003827E+01   -1.7258950086E+01   -1.7171784836E+01   -1.7085494915E+01
   -1.7000067382E+01   -1.6915489512E+01   -1.6831748801E+01   -1.6748832964E+01
   -1.6666729932E+01   -1.6585427856E+01   -1.6504915100E+01   -1.6425180244E+01
   -1.6346212079E+01   -1.6267999604E+01   -1.6190532026E+01   -1.6113798755E+01
   -1.6037789398E+01   -1.5962493760E+01   -1.5887901834E+01   -1.5814003802E+01
   -1.5740790026E+01   -1.5668251047E+01   -1.5596377577E+01   -1.5525160499E+01
   -1.5454590864E+01   -1.5384659881E+01   -1.5315358920E+01   -1.5246679504E+01
   -1.5178613311E+01   -1.5111152162E+01   -1.5044288026E+01   -1.4978013013E+01
   -1.4912319371E+01   -1.4847199483E+01   -1.4782645866E+01   -1.4718651165E+01
   -1.4655208152E+01   -1.4592309725E+01   -1.4529948901E+01   -1.4468118816E+01
   -1.4406812724E+01   -1.4346023992E+01   -1.4285746099E+01   -1.4225972632E+01
   -1.4166697285E+01   -1.4107913858E+01   -1.4049616252E+01   -1.3991798469E+01
   -1.3934454610E+01   -1.3877578872E+01   -1.3821165545E+01   -1.3765209014E+01
   -1.3709703751E+01   -1.3654644321E+01   -1.3600025372E+01   -1.3545841641E+01
   -1.3492087945E+01   -1.3438759186E+01   -1.3385850344E+01   -1.3333356479E+01
   -1.3281272728E+01   -1.3229594304E+01   -1.3178316493E+01   -1.3127434655E+01
   -1.3076944220E+01   -1.3026840691E+01   -1.2977119636E+01   -1.2927776693E+01
   -1.2878807565E+01   -1.2830208019E+01   -1.2781973888E+01   -1.2734101066E+01
   -1.2686585508E+01   -1.2639423230E+01   -1.2592610306E+01   -1.2546142868E+01
   -1.2500017107E+01   -1.2454229268E+01   -1.2408775649E+01   -1.2363652607E+01
   -1.2318856546E+01   -1.2274383926E+01   -1.2230231256E+01   -1.2186395097E+01
   -1.2142872056E+01   -1.2099658790E+01   -1.2056752005E+01   -1.2014148451E+01
   -1.1971844925E+01   -1.1929838269E+01   -1.1888125368E+01   -1.1846703152E+01
   -1.1805568594E+01   -1.1764718706E+01   -1.1724150544E+01   -1.1683861204E+01
   -1.1643847820E+01   -1.1604107568E+01   -1.1564637660E+01   -1.1525435348E+01
   -1.1486497917E+01   -1.1447822694E+01   -1.1409407039E+01   -1.1371248346E+01
   -1.1333344047E+01   -1.1295691606E+01   -1.1258288521E+01   -1.1221132322E+01
   -1.1184220575E+01   -1.1147550873E+01   -1.1111120845E+01   -1.1074928147E+01
   -1.1038970469E+01   -1.1003245528E+01   -1.0967751073E+01   -1.0932484879E+01
   -1.0897444752E+01   -1.0862628526E+01   -1.0828034060E+01   -1.0793659244E+01
   -1.0759501991E+01   -1.0725560242E+01   -1.0691831966E+01   -1.0658315153E+01
   -1.0625007822E+01   -1.0591908014E+01   -1.0559013796E+01   -1.0526323260E+01
   -1.0493834518E+01   -1.0461545708E+01   -1.0429454990E+01   -1.0397560546E+01
   -1.0365860583E+01   -1.0334353325E+01   -1.0303037022E+01   -1.0271909942E+01
   -1.0240970375E+01   -1.0210216633E+01   -1.0179647047E+01   -1.0149259966E+01
   -1.0119053761E+01   -1.0089026824E+01   -1.0059177561E+01   -1.0029504401E+01
   -1.0000005790E+01   -9.9706801919E+00   -9.9415260898E+00   -9.9125419833E+00
   -9.8837263900E+00   -9.8550778444E+00   -9.8265948982E+00   -9.7982761196E+00
   -9.7701200935E+00   -9.7421254207E+00   -9.7142907183E+00   -9.6866146190E+00
   -9.6590957709E+00   -9.6317328378E+00   -9.6045244982E+00   -9.5774694457E+00
   -9.5505663887E+00   -9.5238140497E+00   -9.4972111658E+00   -9.4707564880E+00
   -9.4444487813E+00   -9.4182868244E+00   -9.3922694092E+00   -9.3663953413E+00
   -9.3406634392E+00   -9.3150725345E+00   -9.2896214713E+00   -9.2643091066E+00
   -9.2391343096E+00   -9.2140959620E+00   -9.1891929573E+00   -9.1644242012E+00
   -9.1397886109E+00   -9.1152851155E+00   -9.0909126553E+00   -9.0666701821E+00
   -9.0425566587E+00   -9.0185710589E+00   -8.9947123676E+00   -8.9709795801E+00
   -8.9473717025E+00   -8.9238877512E+00   -8.9005267529E+00   -8.8772877447E+00
   -8.8541697733E+00   -8.8311718957E+00   -8.8082931786E+00   -8.7855326981E+00
   -8.7628895400E+00   -8.7403627996E+00   -8.7179515814E+00   -8.6956549989E+00
   -8.6734721748E+00   -8.6514022408E+00   -8.6294443373E+00   -8.6075976134E+00
   -8.5858612268E+00   -8.5642343438E+00   -8.5427161389E+00   -8.5213057950E+00
   -8.5000025032E+00   -8.4788054625E+00   -8.4577138800E+00   -8.4367269707E+00
   -8.4158439573E+00   -8.3950640702E+00   -8.3743865474E+00   -8.3538106342E+00
   -8.3333355837E+00   -8.3129606560E+00   -8.2926851184E+00   -8.2725082456E+00
   -8.2524293189E+00   -8.2324476271E+00   -8.2125624654E+00   -8.1927731360E+00
   -8.1730789479E+00   -8.1534792166E+00   -8.1339732642E+00   -8.1145604192E+00
   -8.0952400165E+00   -8.0760113974E+00   -8.0568739095E+00   -8.0378269063E+00
   -8.0188697477E+00   -8.0000017995E+00   -7.9812224334E+00   -7.9625310271E+00
   -7.9439269640E+00   -7.9254096334E+00   -7.9069784300E+00   -7.8886327545E+00
   -7.8703720129E+00   -7.8521956166E+00   -7.8341029828E+00   -7.8160935336E+00
   -7.7981666968E+00   -7.7803219052E+00   -7.7625585968E+00   -7.7448762148E+00
   -7.7272742075E+00   -7.7097520280E+00   -7.6923091346E+00   -7.6749449903E+00
   -7.6576590630E+00   -7.6404508254E+00   -7.6233197550E+00   -7.6062653338E+00
   -7.5892870485E+00   -7.5723843905E+00   -7.5555568556E+00   -7.5388039441E+00
   -7.5221251606E+00   -7.5055200142E+00   -7.4889880184E+00   -7.4725286909E+00
   -7.4561415535E+00   -7.4398261324E+00   -7.4235819578E+00   -7.4074085641E+00
   -7.3913054895E+00   -7.3752722766E+00   -7.3593084717E+00   -7.3434136250E+00
   -7.3275872907E+00   -7.3118290267E+00   -7.2961383949E+00   -7.2805149608E+00
   -7.2649582936E+00   -7.2494679662E+00   -7.2340435553E+00   -7.2186846409E+00
   -7.2033908067E+00   -7.1881616400E+00   -7.1729967315E+00   -7.1578956753E+00
   -7.1428580691E+00   -7.1278835137E+00   -7.1129716134E+00   -7.0981219759E+00
   -7.0833342120E+00   -7.0686079357E+00   -7.0539427644E+00   -7.0393383185E+00
   -7.0247942217E+00   -7.0103101006E+00   -6.9958855850E+00   -6.9815203078E+00
   -6.9672139048E+00   -6.9529660147E+00   -6.9387762793E+00   -6.9246443434E+00
   -6.9105698544E+00   -6.8965524629E+00   -6.8825918219E+00   -6.8686875877E+00
   -6.8548394190E+00   -6.8410469775E+00   -6.8273099273E+00   -6.8136279355E+00
   -6.8000006717E+00   -6.7864278083E+00   -6.7729090201E+00   -6.7594439846E+00
   -6.7460323819E+00   -6.7326738944E+00   -6.7193682074E+00   -6.7061150084E+00
   -6.6929139873E+00   -6.6797648368E+00   -6.6666672516E+00   -6.6536209290E+00
   -6.6406255687E+00   -6.6276808726E+00   -6.6147865450E+00   -6.6019422926E+00
   -6.5891478241E+00   -6.5764028508E+00   -6.5637070858E+00   -6.5510602449E+00
   -6.5384620457E+00   -6.5259122082E+00   -6.5134104544E+00   -6.5009565085E+00
   -6.4885500968E+00   -6.4761909477E+00   -6.4638787916E+00   -6.4516133610E+00
   -6.4393943904E+00   -6.4272216163E+00   -6.4150947773E+00   -6.4030136138E+00
   -6.3909778682E+00   -6.3789872850E+00   -6.3670416104E+00   -6.3551405925E+00
   -6.3432839815E+00   -6.3314715292E+00   -6.3197029894E+00   -6.3079781177E+00
   -6.2962966715E+00   -6.2846584099E+00   -6.2730630941E+00   -6.2615104866E+00
   -6.2500003519E+00   -6.2385324564E+00   -6.2271065678E+00   -6.2157224558E+00
   -6.2043798917E+00   -6.1930786485E+00   -6.1818185007E+00   -6.1705992246E+00
   -6.1594205981E+00   -6.1482824007E+00   -6.1371844135E+00   -6.1261264190E+00
   -6.1151082014E+00   -6.1041295467E+00   -6.0931902420E+00   -6.0822900761E+00
   -6.0714288395E+00   -6.0606063239E+00   -6.0498223226E+00   -6.0390766304E+00
   -6.0283690435E+00   -6.0176993596E+00   -6.0070673778E+00   -5.9964728986E+00
   -5.9859157239E+00   -5.9753956571E+00   -5.9649125029E+00   -5.9544660672E+00
   -5.9440561576E+00   -5.9336825827E+00   -5.9233451528E+00   -5.9130436791E+00
   -5.9027779745E+00   -5.8925478529E+00   -5.8823531298E+00   -5.8721936215E+00
   -5.8620691461E+00   -5.8519795226E+00   -5.8419245714E+00   -5.8319041140E+00
   -5.8219179733E+00   -5.8119659732E+00   -5.8020479391E+00   -5.7921636972E+00
   -5.7823130753E+00   -5.7724959020E+00   -5.7627120073E+00   -5.7529612222E+00
   -5.7432433790E+00   -5.7335583110E+00   -5.7239058527E+00   -5.7142858396E+00
   -5.7046981085E+00   -5.6951424971E+00   -5.6856188443E+00   -5.6761269900E+00
  </PP_LOCAL>
 <PP_NONLOCAL>
   <PP_BETA.1
       type="real"
       size=" 600"
       columns="4"
       index="1"
       angular_momentum="0"
       cutoff_radius_index=" 214"
       cutoff_radius="    2.1300000000E+00" >
   -5.9994231805E-12    4.1801041158E-02    8.3555148524E-02    1.2521547702E-01
    1.6673535869E-01    2.0806839058E-01    2.4916852169E-01    2.8999013890E-01
    3.3048815137E-01    3.7061807338E-01    4.1033610518E-01    4.4959921172E-01
    4.8836519892E-01    5.2659278738E-01    5.6424168323E-01    6.0127264595E-01
    6.3764755298E-01    6.7332946103E-01    7.0828266382E-01    7.4247274616E-01
    7.7586663442E-01    8.0843264300E-01    8.4014051702E-01    8.7096147096E-01
    9.0086822338E-01    9.2983502756E-01    9.5783769820E-01    9.8485363399E-01
    1.0108618364E+00    1.0358429244E+00    1.0597791455E+00    1.0826543826E+00
    1.1044541581E+00    1.1251656331E+00    1.1447776044E+00    1.1632804978E+00
    1.1806663575E+00    1.1969288336E+00    1.2120631662E+00    1.2260661665E+00
    1.2389361958E+00    1.2506731423E+00    1.2612783948E+00    1.2707548155E+00
    1.2791067098E+00    1.2863397958E+00    1.2924611704E+00    1.2974792759E+00
    1.3014038643E+00    1.3042459607E+00    1.3060178260E+00    1.3067329184E+00
    1.3064058551E+00    1.3050523723E+00    1.3026892857E+00    1.2993344500E+00
    1.2950067190E+00    1.2897259045E+00    1.2835127357E+00    1.2763888190E+00
    1.2683765964E+00    1.2594993057E+00    1.2497809392E+00    1.2392462037E+00
    1.2279204800E+00    1.2158297824E+00    1.2030007187E+00    1.1894604500E+00
    1.1752366509E+00    1.1603574693E+00    1.1448514864E+00    1.1287476771E+00
    1.1120753696E+00    1.0948642055E+00    1.0771440998E+00    1.0589452002E+00
    1.0402978470E+00    1.0212325322E+00    1.0017798589E+00    9.8197049981E-01
    9.6183515603E-01    9.4140451554E-01    9.2070921120E-01    8.9977977866E-01
    8.7864661395E-01    8.5733993095E-01    8.3588971863E-01    8.1432569817E-01
    7.9267728000E-01    7.7097352081E-01    7.4924308067E-01    7.2751418021E-01
    7.0581455807E-01    6.8417142867E-01    6.6261144042E-01    6.4116063447E-01
    6.1984440414E-01    5.9868745511E-01    5.7771376664E-01    5.5694655378E-01
    5.3640823085E-01    5.1612037625E-01    4.9610369881E-01    4.7637800582E-01
    4.5696217284E-01    4.3787411548E-01    4.1913076329E-01    4.0074803589E-01
    3.8274082145E-01    3.6512295774E-01    3.4790721570E-01    3.3110528580E-01
    3.1472776727E-01    2.9878416015E-01    2.8328286040E-01    2.6823115805E-01
    2.5363523849E-01    2.3950018682E-01    2.2582999546E-01    2.1262757486E-01
    1.9989476741E-01    1.8763236441E-01    1.7584012620E-01    1.6451680527E-01
    1.5366017228E-01    1.4326704500E-01    1.3333331996E-01    1.2385400664E-01