
     Program PWSCF v.6.5 starts on 11Feb2021 at 17:16:12 

     This program is part of the open-source Quantum ESPRESSO suite
     for quantum simulation of materials; please cite
         "P. Giannozzi et al., J. Phys.:Condens. Matter 21 395502 (2009);
         "P. Giannozzi et al., J. Phys.:Condens. Matter 29 465901 (2017);
          URL http://www.quantum-espresso.org", 
     in publications or presentations arising from this work. More details at
     http://www.quantum-espresso.org/quote

     Parallel version (MPI), running on     1 processors

     MPI processes distributed on     1 nodes
     Waiting for input...
     Reading input from standard input

     Current dimensions of program PWSCF are:
     Max number of different atomic species (ntypx) = 10
     Max number of k-points (npk) =  40000
     Max angular momentum in pseudopotentials (lmaxx) =  3

     IMPORTANT: XC functional enforced from input :
     Exchange-correlation= B3LYP
                           (   7  12   9   7   0   0   0)
     EXX-fraction              =        0.20
     Any further DFT definition will be discarded
     Please, verify this is what you really want


     gamma-point specific algorithms are used

     Subspace diagonalization in iterative solution of the eigenvalue problem:
     a serial algorithm will be used

     EXX: grid of k+q points same as grid of k-points

     G-vector sticks info
     --------------------
     sticks:   dense  smooth     PW     G-vecs:    dense   smooth      PW
     Sum        1129    1129    293                28671    28671    3695


     Title: 
     CH4                                                                        


     bravais-lattice index     =            8
     lattice parameter (alat)  =       9.4486  a.u.
     unit-cell volume          =     843.5418 (a.u.)^3
     number of atoms/cell      =            5
     number of atomic types    =            2
     number of electrons       =         8.00
     number of Kohn-Sham states=           20
     kinetic-energy cutoff     =      40.0000  Ry
     charge density cutoff     =     160.0000  Ry
     cutoff for Fock operator  =      65.0000  Ry
     convergence threshold     =      1.0E-06
     mixing beta               =       0.7000
     number of iterations used =            8  plain     mixing
     Exchange-correlation= B3LYP
                           (   7  12   9   7   0   0   0)
     EXX-fraction              =        0.20

     celldm(1)=   9.448631  celldm(2)=   1.000000  celldm(3)=   1.000000
     celldm(4)=   0.000000  celldm(5)=   0.000000  celldm(6)=   0.000000

     crystal axes: (cart. coord. in units of alat)
               a(1) = (   1.000000   0.000000   0.000000 )  
               a(2) = (   0.000000   1.000000   0.000000 )  
               a(3) = (   0.000000   0.000000   1.000000 )  

     reciprocal axes: (cart. coord. in units 2 pi/alat)
               b(1) = (  1.000000  0.000000  0.000000 )  
               b(2) = (  0.000000  1.000000  0.000000 )  
               b(3) = (  0.000000  0.000000  1.000000 )  


     PseudoPot. # 1 for H  read from file:
     ../../psp/H.blyp-vbc.UPF
     MD5 check sum: 64d25ad537c4b939b17faee1147b797b
     Pseudo is Norm-conserving, Zval =  1.0
     Generated by new atomic code, or converted to UPF format
     Using radial grid of  243 points,  0 beta functions with: 

     PseudoPot. # 2 for C  read from file:
     ../../psp/C.blyp-mt.UPF
     MD5 check sum: 9707c83c4328ed89710f741247262d6d
     Pseudo is Norm-conserving, Zval =  4.0
     Generated by new atomic code, or converted to UPF format
     Using radial grid of  279 points,  1 beta functions with: 
                l(1) =   0

     atomic species   valence    mass     pseudopotential
        H              1.00     1.00794     H ( 1.00)
        C              4.00    12.01070     C ( 1.00)

     24 Sym. Ops. (no inversion) found



   Cartesian axes

     site n.     atom                  positions (alat units)
         1           C   tau(   1) = (   0.0000000   0.0000000   0.0000000  )
         2           H   tau(   2) = (   0.1350000   0.1350000   0.1350000  )
         3           H   tau(   3) = (  -0.1350000  -0.1350000   0.1350000  )
         4           H   tau(   4) = (   0.1350000  -0.1350000  -0.1350000  )
         5           H   tau(   5) = (  -0.1350000   0.1350000  -0.1350000  )

     number of k points=     1  Methfessel-Paxton smearing, width (Ry)=  0.0007
                       cart. coord. in units 2pi/alat
        k(    1) = (   0.0000000   0.0000000   0.0000000), wk =   2.0000000

     Dense  grid:    14336 G-vectors     FFT dimensions: (  40,  40,  40)

     Estimated max dynamical RAM per process >      19.68 MB

     Initial potential from superposition of free atoms

     starting charge    7.99991, renormalised to    8.00000

     negative rho (up, down):  4.467E-06 0.000E+00
     Starting wfcs are    8 randomized atomic wfcs +   12 random wfcs

     total cpu time spent up to now is        0.1 secs

     Self-consistent Calculation

     iteration #  1     ecut=    40.00 Ry     beta= 0.70
     Davidson diagonalization with overlap
     ethr =  1.00E-02,  avg # of iterations =  7.0

     negative rho (up, down):  1.168E-06 0.000E+00

     total cpu time spent up to now is        0.4 secs

     total energy              =     -15.87145474 Ry
     Harris-Foulkes estimate   =     -16.24756365 Ry
     estimated scf accuracy    <       0.55128363 Ry

     iteration #  2     ecut=    40.00 Ry     beta= 0.70
     Davidson diagonalization with overlap
     ethr =  6.89E-03,  avg # of iterations =  4.0

     negative rho (up, down):  2.538E-07 0.000E+00

     total cpu time spent up to now is        0.5 secs

     total energy              =     -15.99500393 Ry
     Harris-Foulkes estimate   =     -16.14034886 Ry
     estimated scf accuracy    <       0.29367412 Ry

     iteration #  3     ecut=    40.00 Ry     beta= 0.70
     Davidson diagonalization with overlap
     ethr =  3.67E-03,  avg # of iterations =  1.0

     total cpu time spent up to now is        0.6 secs

     total energy              =     -16.04971915 Ry
     Harris-Foulkes estimate   =     -16.05169532 Ry
     estimated scf accuracy    <       0.00453651 Ry

     iteration #  4     ecut=    40.00 Ry     beta= 0.70
     Davidson diagonalization with overlap
     ethr =  5.67E-05,  avg # of iterations =  2.0

     total cpu time spent up to now is        0.7 secs

     End of self-consistent calculation

          k = 0.0000 0.0000 0.0000 (  1848 PWs)   bands (ev):

   -14.9600  -7.5024  -7.4926  -7.4878  -0.3681   4.0597   4.0610   4.8292
     4.8303   4.8345   6.4843   6.4851   6.4922   7.2986  10.0747  10.0779
    10.0807  10.7555  10.7566  11.3433

     the Fermi energy is    -1.8084 ev

!    total energy              =     -16.05190673 Ry
     Harris-Foulkes estimate   =     -16.05220772 Ry
     estimated scf accuracy    <       0.00062539 Ry

     convergence has been achieved in   4 iterations

     Using ACE for calculation of exact exchange

     EXX grid:     3721 G-vectors     FFT dimensions: (  25,  25,  25)

     EXX: now go back to refine exchange calculation

     total cpu time spent up to now is        0.9 secs

     Self-consistent Calculation

     iteration #  1     ecut=    40.00 Ry     beta= 0.70
     Davidson diagonalization with overlap
     ethr =  5.67E-05,  avg # of iterations =  2.0

     total cpu time spent up to now is        1.0 secs

     End of self-consistent calculation

          k = 0.0000 0.0000 0.0000 (  1848 PWs)   bands (ev):

   -16.7821  -8.6872  -8.6853  -8.6801   0.0633   4.4966   4.4967   5.6354
     5.6360   5.6378   6.9939   6.9949   6.9954   7.7207  10.5502  10.5505
    10.5507  11.0572  11.0573  12.1218

     the Fermi energy is    -2.3301 ev

!    total energy              =     -16.03128217 Ry
     Harris-Foulkes estimate   =     -16.03179102 Ry
     estimated scf accuracy    <       0.00069016 Ry

     convergence has been achieved in   1 iterations

     Using ACE for calculation of exact exchange

     total energy              =     -16.03141161 Ry
     Harris-Foulkes estimate   =     -16.03192047 Ry
     est. exchange err (dexx)  =       0.00012944 Ry
     - averaged Fock potential =       2.28337180 Ry
     + Fock energy (ACE)       =      -1.14100044 Ry

     scf convergence threshold =          1.3E-05 Ry

     EXX: now go back to refine exchange calculation

     total cpu time spent up to now is        1.1 secs

     Self-consistent Calculation

     iteration #  1     ecut=    40.00 Ry     beta= 0.70
     Davidson diagonalization with overlap
     ethr =  5.67E-05,  avg # of iterations =  2.0

     total cpu time spent up to now is        1.2 secs

     total energy              =     -16.03126141 Ry
     Harris-Foulkes estimate   =     -16.03190130 Ry
     estimated scf accuracy    <       0.00084998 Ry

     iteration #  2     ecut=    40.00 Ry     beta= 0.70
     Davidson diagonalization with overlap
     ethr =  1.06E-05,  avg # of iterations =  2.0

     total cpu time spent up to now is        1.4 secs

     total energy              =     -16.03152886 Ry
     Harris-Foulkes estimate   =     -16.03175886 Ry
     estimated scf accuracy    <       0.00042780 Ry

     iteration #  3     ecut=    40.00 Ry     beta= 0.70
     Davidson diagonalization with overlap
     ethr =  5.35E-06,  avg # of iterations =  1.0

     total cpu time spent up to now is        1.5 secs

     End of self-consistent calculation

          k = 0.0000 0.0000 0.0000 (  1848 PWs)   bands (ev):

   -16.8476  -8.7327  -8.7326  -8.7326   0.0619   4.5038   4.5039   5.6176
     5.6177   5.6178   7.0003   7.0003   7.0004   7.7125  10.5602  10.5602
    10.5602  11.0644  11.0644  12.1249

     the Fermi energy is    -2.3613 ev

!    total energy              =     -16.03161272 Ry
     Harris-Foulkes estimate   =     -16.03161283 Ry
     estimated scf accuracy    <       0.00000025 Ry

     convergence has been achieved in   3 iterations

     Using ACE for calculation of exact exchange

     total energy              =     -16.03163020 Ry
     Harris-Foulkes estimate   =     -16.03163031 Ry
     est. exchange err (dexx)  =       0.00001749 Ry
     - averaged Fock potential =       2.28390575 Ry
     + Fock energy (ACE)       =      -1.14292280 Ry

     scf convergence threshold =          1.7E-06 Ry

     EXX: now go back to refine exchange calculation

     total cpu time spent up to now is        1.6 secs

     Self-consistent Calculation

     iteration #  1     ecut=    40.00 Ry     beta= 0.70
     Davidson diagonalization with overlap
     ethr =  5.35E-06,  avg # of iterations =  1.0

     Threshold (ethr) on eigenvalues was too large:
     Diagonalizing with lowered threshold

     Davidson diagonalization with overlap
     ethr =  1.13E-07,  avg # of iterations =  1.0

     total cpu time spent up to now is        1.8 secs

     total energy              =     -16.03163027 Ry
     Harris-Foulkes estimate   =     -16.03163771 Ry
     estimated scf accuracy    <       0.00001015 Ry

     iteration #  2     ecut=    40.00 Ry     beta= 0.70
     Davidson diagonalization with overlap
     ethr =  1.27E-07,  avg # of iterations =  2.0

     total cpu time spent up to now is        1.9 secs

     total energy              =     -16.03163320 Ry
     Harris-Foulkes estimate   =     -16.03163578 Ry
     estimated scf accuracy    <       0.00000473 Ry

     iteration #  3     ecut=    40.00 Ry     beta= 0.70
     Davidson diagonalization with overlap
     ethr =  5.91E-08,  avg # of iterations =  1.0

     total cpu time spent up to now is        2.0 secs

     End of self-consistent calculation

          k = 0.0000 0.0000 0.0000 (  1848 PWs)   bands (ev):

   -16.8433  -8.7273  -8.7272  -8.7272   0.0628   4.5048   4.5048   5.6204
     5.6204   5.6204   7.0024   7.0024   7.0025   7.7136  10.5607  10.5607
    10.5607  11.0647  11.0647  12.1277

     the Fermi energy is    -2.3578 ev

!    total energy              =     -16.03163417 Ry
     Harris-Foulkes estimate   =     -16.03163417 Ry
     estimated scf accuracy    <          9.7E-10 Ry

     convergence has been achieved in   3 iterations

     Using ACE for calculation of exact exchange

!!   total energy              =     -16.03163446 Ry
     Harris-Foulkes estimate   =     -16.03163446 Ry
     est. exchange err (dexx)  =       0.00000029 Ry
     - averaged Fock potential =       2.28593659 Ry
     + Fock energy (ACE)       =      -1.14301408 Ry

     EXX self-consistency reached

     Forces acting on atoms (cartesian axes, Ry/au):

     atom    1 type  2   force =     0.00000000    0.00000000    0.00000000
     atom    2 type  1   force =    -0.05016113   -0.05016113   -0.05016113
     atom    3 type  1   force =     0.05016113    0.05016113   -0.05016113
     atom    4 type  1   force =    -0.05016113    0.05016113    0.05016113
     atom    5 type  1   force =     0.05016113   -0.05016113    0.05016113

     Total force =     0.173763     Total SCF correction =     0.000013

     Writing output data file ./CH4.save/

     init_run     :      0.09s CPU      0.10s WALL (       1 calls)
     electrons    :      1.65s CPU      1.67s WALL (       4 calls)
     forces       :      0.02s CPU      0.02s WALL (       1 calls)

     Called by init_run:
     wfcinit      :      0.03s CPU      0.03s WALL (       1 calls)
     potinit      :      0.04s CPU      0.04s WALL (       1 calls)
     hinit0       :      0.02s CPU      0.02s WALL (       1 calls)

     Called by electrons:
     c_bands      :      1.10s CPU      1.11s WALL (      12 calls)
     sum_band     :      0.17s CPU      0.17s WALL (      12 calls)
     v_of_rho     :      0.42s CPU      0.43s WALL (      13 calls)
     mix_rho      :      0.02s CPU      0.02s WALL (      12 calls)

     Called by c_bands:
     init_us_2    :      0.00s CPU      0.00s WALL (      25 calls)
     regterg      :      1.10s CPU      1.11s WALL (      12 calls)

     Called by sum_band:

     Called by *egterg:
     h_psi        :      0.71s CPU      0.71s WALL (      39 calls)
     g_psi        :      0.00s CPU      0.00s WALL (      26 calls)
     rdiaghg      :      0.02s CPU      0.02s WALL (      34 calls)

     Called by h_psi:
     h_psi:calbec :      0.00s CPU      0.00s WALL (      39 calls)
     vloc_psi     :      0.62s CPU      0.63s WALL (      39 calls)
     add_vuspsi   :      0.00s CPU      0.00s WALL (      39 calls)

     General routines
     calbec       :      0.10s CPU      0.10s WALL (      81 calls)
     fft          :      0.16s CPU      0.16s WALL (     101 calls)
     ffts         :      0.02s CPU      0.02s WALL (      12 calls)
     fftw         :      0.68s CPU      0.68s WALL (     722 calls)
     fftc         :      0.13s CPU      0.13s WALL (     320 calls)
     fftcw        :      0.05s CPU      0.05s WALL (     160 calls)

     Parallel routines

     EXX routines
     exx_grid     :      0.00s CPU      0.00s WALL (       1 calls)
     exxinit      :      0.02s CPU      0.02s WALL (       4 calls)
     vexx         :      0.20s CPU      0.22s WALL (       4 calls)
     matcalc      :      0.09s CPU      0.10s WALL (      38 calls)
     aceupdate    :      0.00s CPU      0.00s WALL (       4 calls)
     vexxace      :      0.12s CPU      0.13s WALL (      27 calls)
     aceinit      :      0.21s CPU      0.23s WALL (       4 calls)

     PWSCF        :      2.09s CPU      2.15s WALL


   This run was terminated on:  17:16:14  11Feb2021            

=------------------------------------------------------------------------------=
   JOB DONE.
=------------------------------------------------------------------------------=
