
     Program PWSCF v.6.6 starts on  7Feb2022 at 15:18:54 

     This program is part of the open-source Quantum ESPRESSO suite
     for quantum simulation of materials; please cite
         "P. Giannozzi et al., J. Phys.:Condens. Matter 21 395502 (2009);
         "P. Giannozzi et al., J. Phys.:Condens. Matter 29 465901 (2017);
          URL http://www.quantum-espresso.org", 
     in publications or presentations arising from this work. More details at
     http://www.quantum-espresso.org/quote

     Parallel version (MPI), running on     1 processors

     MPI processes distributed on     1 nodes
     Fft bands division:     nmany     =       1
     Waiting for input...
     Reading input from standard input

     Current dimensions of program PWSCF are:
     Max number of different atomic species (ntypx) = 10
     Max number of k-points (npk) =  40000
     Max angular momentum in pseudopotentials (lmaxx) =  3

     Atomic positions and unit cell read from directory:
     ./hidrophene.save/
     Atomic positions from file used, from input discarded


     Subspace diagonalization in iterative solution of the eigenvalue problem:
     a serial algorithm will be used


     G-vector sticks info
     --------------------
     sticks:   dense  smooth     PW     G-vecs:    dense   smooth      PW
     Sum         547     547    163                30415    30415    5033



     bravais-lattice index     =            4
     lattice parameter (alat)  =       7.0000  a.u.
     unit-cell volume          =     891.1401 (a.u.)^3
     number of atoms/cell      =            2
     number of atomic types    =            2
     number of electrons       =         2.00
     number of Kohn-Sham states=           10
     kinetic-energy cutoff     =      40.0000  Ry
     charge density cutoff     =     160.0000  Ry
     Exchange-correlation= SLA PW NOGX NOGC
                           (   1   4   0   0   0   0   0)

     celldm(1)=   7.000000  celldm(2)=   0.000000  celldm(3)=   3.000000
     celldm(4)=   0.000000  celldm(5)=   0.000000  celldm(6)=   0.000000

     crystal axes: (cart. coord. in units of alat)
               a(1) = (   1.000000   0.000000   0.000000 )  
               a(2) = (  -0.500000   0.866025   0.000000 )  
               a(3) = (   0.000000   0.000000   3.000000 )  

     reciprocal axes: (cart. coord. in units 2 pi/alat)
               b(1) = (  1.000000  0.577350 -0.000000 )  
               b(2) = (  0.000000  1.154701  0.000000 )  
               b(3) = (  0.000000 -0.000000  0.333333 )  


     PseudoPot. # 1 for H  read from file:
     ../../../pseudo/H.upf
     MD5 check sum: 785d664e2740b342582c379770e72c80
     Pseudo is Norm-conserving, Zval =  1.0
     Generated using ONCVPSP code by D. R. Hamann
     Using radial grid of 1180 points,  3 beta functions with: 
                l(1) =   0
                l(2) =   0
                l(3) =   1

     PseudoPot. # 2 for H  read from file:
     ../../../pseudo/H.upf
     MD5 check sum: 785d664e2740b342582c379770e72c80
     Pseudo is Norm-conserving, Zval =  1.0
     Generated using ONCVPSP code by D. R. Hamann
     Using radial grid of 1180 points,  3 beta functions with: 
                l(1) =   0
                l(2) =   0
                l(3) =   1

     atomic species   valence    mass     pseudopotential
        H1             1.00     1.00000     H ( 1.00)
        H2             1.00     1.00000     H ( 1.00)

     Starting magnetic structure 
     atomic species   magnetization
        H1           0.000
        H2           0.000

      6 Sym. Ops. (no inversion) found


                                    s                        frac. trans.

      isym =  1     identity                                     

 cryst.   s( 1) = (     1          0          0      )
                  (     0          1          0      )
                  (     0          0          1      )

 cart.    s( 1) = (  1.0000000  0.0000000  0.0000000 )
                  (  0.0000000  1.0000000  0.0000000 )
                  (  0.0000000  0.0000000  1.0000000 )


      isym =  2     120 deg rotation - cryst. axis [0,0,1]       

 cryst.   s( 2) = (     0          1          0      )
                  (    -1         -1          0      )
                  (     0          0          1      )

 cart.    s( 2) = ( -0.5000000 -0.8660254  0.0000000 )
                  (  0.8660254 -0.5000000  0.0000000 )
                  (  0.0000000  0.0000000  1.0000000 )


      isym =  3     120 deg rotation - cryst. axis [0,0,-1]      

 cryst.   s( 3) = (    -1         -1          0      )
                  (     1          0          0      )
                  (     0          0          1      )

 cart.    s( 3) = ( -0.5000000  0.8660254  0.0000000 )
                  ( -0.8660254 -0.5000000  0.0000000 )
                  (  0.0000000  0.0000000  1.0000000 )


      isym =  4     inv. 180 deg rotation - cart. axis [1,0,0]   

 cryst.   s( 4) = (    -1          0          0      )
                  (     1          1          0      )
                  (     0          0          1      )

 cart.    s( 4) = ( -1.0000000  0.0000000  0.0000000 )
                  (  0.0000000  1.0000000  0.0000000 )
                  (  0.0000000  0.0000000  1.0000000 )


      isym =  5     inv. 180 deg rotation - cryst. axis [0,1,0]  

 cryst.   s( 5) = (     1          1          0      )
                  (     0         -1          0      )
                  (     0          0          1      )

 cart.    s( 5) = (  0.5000000  0.8660254  0.0000000 )
                  (  0.8660254 -0.5000000  0.0000000 )
                  (  0.0000000  0.0000000  1.0000000 )


      isym =  6     inv. 180 deg rotation - cryst. axis [1,1,0]  

 cryst.   s( 6) = (     0         -1          0      )
                  (    -1          0          0      )
                  (     0          0          1      )

 cart.    s( 6) = (  0.5000000 -0.8660254  0.0000000 )
                  ( -0.8660254 -0.5000000  0.0000000 )
                  (  0.0000000  0.0000000  1.0000000 )


     point group C_3v (3m)  
     there are  3 classes
     the character table:

       E     2C3   3s_v 
A_1    1.00  1.00  1.00
A_2    1.00  1.00 -1.00
E      2.00 -1.00  0.00

     the symmetry operations in each class and the name of the first element:

     E        1
          identity                                               
     2C3      2    3
          120 deg rotation - cryst. axis [0,0,1]                 
     3s_v     4    5    6
          inv. 180 deg rotation - cart. axis [1,0,0]             

   Cartesian axes

     site n.     atom                  positions (alat units)
         1           H1  tau(   1) = (   0.0000000   0.0000000   0.1500000  )
         2           H2  tau(   2) = (  -0.0000000   0.5773503  -0.1500000  )

   Crystallographic axes

     site n.     atom                  positions (cryst. coord.)
         1           H1  tau(   1) = (  0.0000000  0.0000000  0.0500000  )
         2           H2  tau(   2) = (  0.3333333  0.6666667 -0.0500000  )

     number of k points=     7  Gaussian smearing, width (Ry)=  0.0010
                       cart. coord. in units 2pi/alat
        k(    1) = (   0.0000000   0.0000000   0.0000000), wk =   0.0277778
        k(    2) = (   0.0000000   0.1924501   0.0000000), wk =   0.1666667
        k(    3) = (   0.0000000   0.3849002   0.0000000), wk =   0.1666667
        k(    4) = (   0.0000000  -0.5773503   0.0000000), wk =   0.0833333
        k(    5) = (   0.1666667   0.2886751   0.0000000), wk =   0.1666667
        k(    6) = (   0.1666667   0.4811252   0.0000000), wk =   0.3333333
        k(    7) = (   0.3333333   0.5773503   0.0000000), wk =   0.0555556

                       cryst. coord.
        k(    1) = (   0.0000000   0.0000000   0.0000000), wk =   0.0277778
        k(    2) = (   0.0000000   0.1666667   0.0000000), wk =   0.1666667
        k(    3) = (   0.0000000   0.3333333   0.0000000), wk =   0.1666667
        k(    4) = (   0.0000000  -0.5000000   0.0000000), wk =   0.0833333
        k(    5) = (   0.1666667   0.1666667   0.0000000), wk =   0.1666667
        k(    6) = (   0.1666667   0.3333333   0.0000000), wk =   0.3333333
        k(    7) = (   0.3333333   0.3333333   0.0000000), wk =   0.0555556

     Dense  grid:    30415 G-vectors     FFT dimensions: (  30,  30,  90)

     Dynamical RAM for                 wfc:       0.58 MB

     Dynamical RAM for     wfc (w. buffer):       0.58 MB

     Dynamical RAM for           str. fact:       0.93 MB

     Dynamical RAM for           local pot:       0.00 MB

     Dynamical RAM for          nlocal pot:       0.58 MB

     Dynamical RAM for                qrad:       0.35 MB

     Dynamical RAM for          rho,v,vnew:       6.49 MB

     Dynamical RAM for           G-vectors:       1.97 MB

     Dynamical RAM for          h,s,v(r/c):       0.02 MB

     Dynamical RAM for          <psi|beta>:       0.00 MB

     Dynamical RAM for                 psi:       1.16 MB

     Dynamical RAM for                hpsi:       1.16 MB

     Dynamical RAM for      wfcinit/wfcrot:       1.16 MB

     Estimated static dynamical RAM per process >      16.00 MB

     Estimated max dynamical RAM per process >      18.35 MB
     Generating pointlists ...
     new r_m :   0.2684 (alat units)  1.8787 (a.u.) for type    1
     new r_m :   0.2684 (alat units)  1.8787 (a.u.) for type    2

     The potential is recalculated from file :
     ./hidrophene.save/charge-density

     Starting wfcs are    2 randomized atomic wfcs +    8 random wfcs

     Band Structure Calculation
     Davidson diagonalization with overlap

     Computing kpt #:     1  of    14
     total cpu time spent up to now is        0.7 secs

     Computing kpt #:     2  of    14
     total cpu time spent up to now is        1.1 secs

     Computing kpt #:     3  of    14
     total cpu time spent up to now is        1.5 secs

     Computing kpt #:     4  of    14
     total cpu time spent up to now is        2.2 secs

     Computing kpt #:     5  of    14
     total cpu time spent up to now is        2.6 secs

     Computing kpt #:     6  of    14
     total cpu time spent up to now is        3.1 secs

     Computing kpt #:     7  of    14
     total cpu time spent up to now is        3.6 secs

     Computing kpt #:     8  of    14
     total cpu time spent up to now is        4.0 secs

     Computing kpt #:     9  of    14
     total cpu time spent up to now is        4.5 secs

     Computing kpt #:    10  of    14
     total cpu time spent up to now is        4.9 secs

     Computing kpt #:    11  of    14
     total cpu time spent up to now is        5.4 secs

     Computing kpt #:    12  of    14
     total cpu time spent up to now is        5.9 secs

     Computing kpt #:    13  of    14
     total cpu time spent up to now is        6.4 secs

     Computing kpt #:    14  of    14
     total cpu time spent up to now is        7.0 secs

     ethr =  5.00E-10,  avg # of iterations = 37.5

     total cpu time spent up to now is        7.0 secs

     End of band structure calculation

 ------ SPIN UP ------------


          k = 0.0000 0.0000 0.0000 (  3769 PWs)   bands (ev):

    -9.2510  -5.1938   0.0284   0.3643   2.5074   3.7529   6.3679   8.1782
     8.1782   8.6071

     occupation numbers 
     1.0000   1.0000   0.0000   0.0000   0.0000   0.0000   0.0000   0.0000
     0.0000   0.0000

          k = 0.0000 0.1925 0.0000 (  3788 PWs)   bands (ev):

    -8.9732  -5.2775   0.4087   0.4585   2.8060   3.7428   5.0241   6.9002
     7.6211   8.6969

     occupation numbers 
     1.0000   1.0000   0.0000   0.0000   0.0000   0.0000   0.0000   0.0000
     0.0000   0.0000

          k = 0.0000 0.3849 0.0000 (  3808 PWs)   bands (ev):

    -8.2198  -5.7117   0.7508   1.5231   2.7112   4.2914   4.6473   5.6038
     5.7700   6.7063

     occupation numbers 
     1.0000   1.0000   0.0000   0.0000   0.0000   0.0000   0.0000   0.0000
     0.0000   0.0000

          k = 0.0000-0.5774 0.0000 (  3812 PWs)   bands (ev):

    -7.5439  -6.2762   0.9616   2.4615   3.3192   3.5921   4.2596   5.3827
     5.8781   6.3969

     occupation numbers 
     1.0000   1.0000   0.0000   0.0000   0.0000   0.0000   0.0000   0.0000
     0.0000   0.0000

          k = 0.1667 0.2887 0.0000 (  3813 PWs)   bands (ev):

    -8.4521  -5.5399   0.7331   1.1350   2.7150   4.0874   4.1499   6.0125
     7.0352   7.7861

     occupation numbers 
     1.0000   1.0000   0.0000   0.0000   0.0000   0.0000   0.0000   0.0000
     0.0000   0.0000

          k = 0.1667 0.4811 0.0000 (  3822 PWs)   bands (ev):

    -7.6043  -6.1737   1.0664   1.9253   3.0260   3.7661   4.9934   5.3742
     5.6202   6.1957

     occupation numbers 
     1.0000   1.0000   0.0000   0.0000   0.0000   0.0000   0.0000   0.0000
     0.0000   0.0000

          k = 0.3333 0.5774 0.0000 (  3807 PWs)   bands (ev):

    -6.8385  -6.8385   0.8067   2.9364   2.9364   4.1682   4.7670   4.7670
     5.2299   6.7350

     occupation numbers 
     1.0000   1.0000   0.0000   0.0000   0.0000   0.0000   0.0000   0.0000
     0.0000   0.0000

 ------ SPIN DOWN ----------


          k = 0.0000 0.0000 0.0000 (  3769 PWs)   bands (ev):

    -4.7945  -0.8984   0.3585   2.3777   3.2876   5.6080   8.9670   9.9959
    10.2006  11.1743

     occupation numbers 
     0.0000   0.0000   0.0000   0.0000   0.0000   0.0000   0.0000   0.0000
     0.0000   0.0000

          k = 0.0000 0.1925 0.0000 (  3788 PWs)   bands (ev):

    -4.4433  -0.6145   0.7587   2.4320   3.6628   5.0963   7.5495   9.5713
     9.5818   9.8340

     occupation numbers 
     0.0000   0.0000   0.0000   0.0000   0.0000   0.0000   0.0000   0.0000
     0.0000   0.0000

          k = 0.0000 0.3849 0.0000 (  3808 PWs)   bands (ev):

    -3.4411  -0.2726   1.9194   2.1797   4.4363   5.0921   5.8979   6.7040
     7.2367   8.3797

     occupation numbers 
     0.0000   0.0000   0.0000   0.0000   0.0000   0.0000   0.0000   0.0000
     0.0000   0.0000

          k = 0.0000-0.5774 0.0000 (  3812 PWs)   bands (ev):

    -2.3838  -1.0338   2.8555   3.5536   3.9648   4.0438   5.3602   6.7170
     7.2402   7.2549

     occupation numbers 
     0.0000   0.0000   0.0000   0.0000   0.0000   0.0000   0.0000   0.0000
     0.0000   0.0000

          k = 0.1667 0.2887 0.0000 (  3813 PWs)   bands (ev):

    -3.7624  -0.2463   1.5530   2.3018   4.2835   5.0445   5.5935   7.9253
     8.3838   8.7316

     occupation numbers 
     0.0000   0.0000   0.0000   0.0000   0.0000   0.0000   0.0000   0.0000
     0.0000   0.0000

          k = 0.1667 0.4811 0.0000 (  3822 PWs)   bands (ev):

    -2.5559  -0.6669   2.6776   3.0997   3.8699   5.1356   5.6269   6.2410
     6.2861   7.3982

     occupation numbers 
     0.0000   0.0000   0.0000   0.0000   0.0000   0.0000   0.0000   0.0000
     0.0000   0.0000

          k = 0.3333 0.5774 0.0000 (  3807 PWs)   bands (ev):

    -1.4553  -1.4553   2.6566   4.4440   4.4440   4.9567   5.1793   5.1793
     5.4560   7.6786

     occupation numbers 
     0.0000   0.0000   0.0000   0.0000   0.0000   0.0000   0.0000   0.0000
     0.0000   0.0000

     the Fermi energy is    -5.1183 ev
     (compare with:    -4.9815 eV, computed in scf)

     Writing output data file ./hidrophene.save/

     init_run     :      0.06s CPU      0.06s WALL (       1 calls)
     electrons    :      6.65s CPU      6.69s WALL (       1 calls)

     Called by init_run:
     wfcinit      :      0.00s CPU      0.00s WALL (       1 calls)
     wfcinit:atom :      0.00s CPU      0.00s WALL (      14 calls)
     wfcinit:wfcr :      0.22s CPU      0.23s WALL (      14 calls)
     potinit      :      0.01s CPU      0.02s WALL (       1 calls)
     hinit0       :      0.03s CPU      0.03s WALL (       1 calls)

     Called by electrons:
     c_bands      :      6.65s CPU      6.69s WALL (       1 calls)
     v_of_rho     :      0.01s CPU      0.01s WALL (       1 calls)
     v_h          :      0.00s CPU      0.00s WALL (       1 calls)
     v_xc         :      0.01s CPU      0.01s WALL (       1 calls)

     Called by c_bands:
     init_us_2    :      0.01s CPU      0.01s WALL (      14 calls)
     cegterg      :      6.40s CPU      6.43s WALL (      34 calls)

     Called by sum_band:

     Called by *egterg:
     cdiaghg      :      0.05s CPU      0.05s WALL (     539 calls)
     cegterg:over :      0.45s CPU      0.45s WALL (     525 calls)
     cegterg:upda :      0.26s CPU      0.26s WALL (     525 calls)
     cegterg:last :      0.47s CPU      0.48s WALL (     366 calls)
     h_psi        :      5.27s CPU      5.30s WALL (     573 calls)
     g_psi        :      0.03s CPU      0.03s WALL (     525 calls)

     Called by h_psi:
     h_psi:calbec :      0.15s CPU      0.15s WALL (     573 calls)
     vloc_psi     :      4.97s CPU      4.99s WALL (     573 calls)
     add_vuspsi   :      0.14s CPU      0.14s WALL (     573 calls)

     General routines
     calbec       :      0.15s CPU      0.15s WALL (     573 calls)
     fft          :      0.00s CPU      0.00s WALL (       4 calls)
     fftw         :      4.59s CPU      4.61s WALL (    7154 calls)
     davcio       :      0.00s CPU      0.00s WALL (      28 calls)

     Parallel routines

     PWSCF        :      6.95s CPU      7.01s WALL


   This run was terminated on:  15:19: 1   7Feb2022            

=------------------------------------------------------------------------------=
   JOB DONE.
=------------------------------------------------------------------------------=
Note: The following floating-point exceptions are signalling: IEEE_DENORMAL
