
     Program PWSCF v.6.6 starts on 25Jan2022 at 12:55:18 

     This program is part of the open-source Quantum ESPRESSO suite
     for quantum simulation of materials; please cite
         "P. Giannozzi et al., J. Phys.:Condens. Matter 21 395502 (2009);
         "P. Giannozzi et al., J. Phys.:Condens. Matter 29 465901 (2017);
          URL http://www.quantum-espresso.org", 
     in publications or presentations arising from this work. More details at
     http://www.quantum-espresso.org/quote

     Parallel version (MPI), running on     1 processors

     MPI processes distributed on     1 nodes
     Fft bands division:     nmany     =       1
     Waiting for input...
     Reading input from standard input

     Current dimensions of program PWSCF are:
     Max number of different atomic species (ntypx) = 10
     Max number of k-points (npk) =  40000
     Max angular momentum in pseudopotentials (lmaxx) =  3

     Subspace diagonalization in iterative solution of the eigenvalue problem:
     a serial algorithm will be used


     G-vector sticks info
     --------------------
     sticks:   dense  smooth     PW     G-vecs:    dense   smooth      PW
     Sum         547     547    163                30415    30415    5033



     bravais-lattice index     =            4
     lattice parameter (alat)  =       7.0000  a.u.
     unit-cell volume          =     891.1401 (a.u.)^3
     number of atoms/cell      =            2
     number of atomic types    =            2
     number of electrons       =         2.00
     number of Kohn-Sham states=            5
     kinetic-energy cutoff     =      40.0000  Ry
     charge density cutoff     =     160.0000  Ry
     convergence threshold     =      1.0E-08
     mixing beta               =       0.7000
     number of iterations used =            8  plain     mixing
     Exchange-correlation= SLA PW NOGX NOGC
                           (   1   4   0   0   0   0   0)

     celldm(1)=   7.000000  celldm(2)=   0.000000  celldm(3)=   3.000000
     celldm(4)=   0.000000  celldm(5)=   0.000000  celldm(6)=   0.000000

     crystal axes: (cart. coord. in units of alat)
               a(1) = (   1.000000   0.000000   0.000000 )  
               a(2) = (  -0.500000   0.866025   0.000000 )  
               a(3) = (   0.000000   0.000000   3.000000 )  

     reciprocal axes: (cart. coord. in units 2 pi/alat)
               b(1) = (  1.000000  0.577350 -0.000000 )  
               b(2) = (  0.000000  1.154701  0.000000 )  
               b(3) = (  0.000000 -0.000000  0.333333 )  


     PseudoPot. # 1 for H  read from file:
     ../../../pseudo/H.upf
     MD5 check sum: 785d664e2740b342582c379770e72c80
     Pseudo is Norm-conserving, Zval =  1.0
     Generated using ONCVPSP code by D. R. Hamann
     Using radial grid of 1180 points,  3 beta functions with: 
                l(1) =   0
                l(2) =   0
                l(3) =   1

     PseudoPot. # 2 for H  read from file:
     ../../../pseudo/H.upf
     MD5 check sum: 785d664e2740b342582c379770e72c80
     Pseudo is Norm-conserving, Zval =  1.0
     Generated using ONCVPSP code by D. R. Hamann
     Using radial grid of 1180 points,  3 beta functions with: 
                l(1) =   0
                l(2) =   0
                l(3) =   1

     atomic species   valence    mass     pseudopotential
        H1             1.00     1.00000     H ( 1.00)
        H2             1.00     1.00000     H ( 1.00)

     Starting magnetic structure 
     atomic species   magnetization
        H1           1.000
        H2           1.000

     12 Sym. Ops. (no inversion) found


                                    s                        frac. trans.

      isym =  1     identity                                     

 cryst.   s( 1) = (     1          0          0      )
                  (     0          1          0      )
                  (     0          0          1      )

 cart.    s( 1) = (  1.0000000  0.0000000  0.0000000 )
                  (  0.0000000  1.0000000  0.0000000 )
                  (  0.0000000  0.0000000  1.0000000 )


      isym =  2     180 deg rotation - cart. axis [0,1,0]        

 cryst.   s( 2) = (    -1          0          0      )
                  (     1          1          0      )
                  (     0          0         -1      )

 cart.    s( 2) = ( -1.0000000  0.0000000  0.0000000 )
                  (  0.0000000  1.0000000  0.0000000 )
                  (  0.0000000  0.0000000 -1.0000000 )


      isym =  3     120 deg rotation - cryst. axis [0,0,1]       

 cryst.   s( 3) = (     0          1          0      )
                  (    -1         -1          0      )
                  (     0          0          1      )

 cart.    s( 3) = ( -0.5000000 -0.8660254  0.0000000 )
                  (  0.8660254 -0.5000000  0.0000000 )
                  (  0.0000000  0.0000000  1.0000000 )


      isym =  4     120 deg rotation - cryst. axis [0,0,-1]      

 cryst.   s( 4) = (    -1         -1          0      )
                  (     1          0          0      )
                  (     0          0          1      )

 cart.    s( 4) = ( -0.5000000  0.8660254  0.0000000 )
                  ( -0.8660254 -0.5000000  0.0000000 )
                  (  0.0000000  0.0000000  1.0000000 )


      isym =  5     180 deg rotation - cryst. axis [1,-1,0]      

 cryst.   s( 5) = (     0         -1          0      )
                  (    -1          0          0      )
                  (     0          0         -1      )

 cart.    s( 5) = (  0.5000000 -0.8660254  0.0000000 )
                  ( -0.8660254 -0.5000000  0.0000000 )
                  (  0.0000000  0.0000000 -1.0000000 )


      isym =  6     180 deg rotation - cryst. axis [2,1,0]       

 cryst.   s( 6) = (     1          1          0      )
                  (     0         -1          0      )
                  (     0          0         -1      )

 cart.    s( 6) = (  0.5000000  0.8660254  0.0000000 )
                  (  0.8660254 -0.5000000  0.0000000 )
                  (  0.0000000  0.0000000 -1.0000000 )


      isym =  7     inv. 180 deg rotation - cart. axis [0,0,1]   

 cryst.   s( 7) = (     1          0          0      )
                  (     0          1          0      )
                  (     0          0         -1      )

 cart.    s( 7) = (  1.0000000  0.0000000  0.0000000 )
                  (  0.0000000  1.0000000  0.0000000 )
                  (  0.0000000  0.0000000 -1.0000000 )


      isym =  8     inv. 180 deg rotation - cart. axis [1,0,0]   

 cryst.   s( 8) = (    -1          0          0      )
                  (     1          1          0      )
                  (     0          0          1      )

 cart.    s( 8) = ( -1.0000000  0.0000000  0.0000000 )
                  (  0.0000000  1.0000000  0.0000000 )
                  (  0.0000000  0.0000000  1.0000000 )


      isym =  9     inv.  60 deg rotation - cryst. axis [0,0,1]  

 cryst.   s( 9) = (    -1         -1          0      )
                  (     1          0          0      )
                  (     0          0         -1      )

 cart.    s( 9) = ( -0.5000000  0.8660254  0.0000000 )
                  ( -0.8660254 -0.5000000  0.0000000 )
                  (  0.0000000  0.0000000 -1.0000000 )


      isym = 10     inv.  60 deg rotation - cryst. axis [0,0,-1] 

 cryst.   s(10) = (     0          1          0      )
                  (    -1         -1          0      )
                  (     0          0         -1      )

 cart.    s(10) = ( -0.5000000 -0.8660254  0.0000000 )
                  (  0.8660254 -0.5000000  0.0000000 )
                  (  0.0000000  0.0000000 -1.0000000 )


      isym = 11     inv. 180 deg rotation - cryst. axis [0,1,0]  

 cryst.   s(11) = (     1          1          0      )
                  (     0         -1          0      )
                  (     0          0          1      )

 cart.    s(11) = (  0.5000000  0.8660254  0.0000000 )
                  (  0.8660254 -0.5000000  0.0000000 )
                  (  0.0000000  0.0000000  1.0000000 )


      isym = 12     inv. 180 deg rotation - cryst. axis [1,1,0]  

 cryst.   s(12) = (     0         -1          0      )
                  (    -1          0          0      )
                  (     0          0          1      )

 cart.    s(12) = (  0.5000000 -0.8660254  0.0000000 )
                  ( -0.8660254 -0.5000000  0.0000000 )
                  (  0.0000000  0.0000000  1.0000000 )


     point group D_3h (-62m)
     there are  6 classes
     the character table:

       E     2C3   3C2   s_h   2S3   3s_v 
A'_1   1.00  1.00  1.00  1.00  1.00  1.00
A'_2   1.00  1.00 -1.00  1.00  1.00 -1.00
E'     2.00 -1.00  0.00  2.00 -1.00  0.00
A''1   1.00  1.00  1.00 -1.00 -1.00 -1.00
A''2   1.00  1.00 -1.00 -1.00 -1.00  1.00
E''    2.00 -1.00  0.00 -2.00  1.00  0.00

     the symmetry operations in each class and the name of the first element:

     E        1
          identity                                               
     2C3      3    4
          120 deg rotation - cryst. axis [0,0,1]                 
     3C2      2    6    5
          180 deg rotation - cart. axis [0,1,0]                  
     s_h      7
          inv. 180 deg rotation - cart. axis [0,0,1]             
     2S3      9   10
          inv.  60 deg rotation - cryst. axis [0,0,1]            
     3s_v     8   11   12
          inv. 180 deg rotation - cart. axis [1,0,0]             

   Cartesian axes

     site n.     atom                  positions (alat units)
         1           H1  tau(   1) = (   0.0000000   0.0000000   0.0000000  )
         2           H2  tau(   2) = (  -0.0000000   0.5773503   0.0000000  )

   Crystallographic axes

     site n.     atom                  positions (cryst. coord.)
         1           H1  tau(   1) = (  0.0000000  0.0000000  0.0000000  )
         2           H2  tau(   2) = (  0.3333333  0.6666667  0.0000000  )

     number of k points=     7  Gaussian smearing, width (Ry)=  0.0100
                       cart. coord. in units 2pi/alat
        k(    1) = (   0.0000000   0.0000000   0.0000000), wk =   0.0277778
        k(    2) = (   0.0000000   0.1924501   0.0000000), wk =   0.1666667
        k(    3) = (   0.0000000   0.3849002   0.0000000), wk =   0.1666667
        k(    4) = (   0.0000000  -0.5773503   0.0000000), wk =   0.0833333
        k(    5) = (   0.1666667   0.2886751   0.0000000), wk =   0.1666667
        k(    6) = (   0.1666667   0.4811252   0.0000000), wk =   0.3333333
        k(    7) = (   0.3333333   0.5773503   0.0000000), wk =   0.0555556

                       cryst. coord.
        k(    1) = (   0.0000000   0.0000000   0.0000000), wk =   0.0277778
        k(    2) = (   0.0000000   0.1666667   0.0000000), wk =   0.1666667
        k(    3) = (   0.0000000   0.3333333   0.0000000), wk =   0.1666667
        k(    4) = (   0.0000000  -0.5000000   0.0000000), wk =   0.0833333
        k(    5) = (   0.1666667   0.1666667   0.0000000), wk =   0.1666667
        k(    6) = (   0.1666667   0.3333333   0.0000000), wk =   0.3333333
        k(    7) = (   0.3333333   0.3333333   0.0000000), wk =   0.0555556

     Dense  grid:    30415 G-vectors     FFT dimensions: (  30,  30,  90)

     Dynamical RAM for                 wfc:       0.29 MB

     Dynamical RAM for     wfc (w. buffer):       4.36 MB

     Dynamical RAM for           str. fact:       0.93 MB

     Dynamical RAM for           local pot:       0.00 MB

     Dynamical RAM for          nlocal pot:       0.58 MB

     Dynamical RAM for                qrad:       0.35 MB

     Dynamical RAM for          rho,v,vnew:       6.49 MB

     Dynamical RAM for               rhoin:       2.16 MB

     Dynamical RAM for            rho*nmix:      14.85 MB

     Dynamical RAM for           G-vectors:       1.97 MB

     Dynamical RAM for          h,s,v(r/c):       0.00 MB

     Dynamical RAM for          <psi|beta>:       0.00 MB

     Dynamical RAM for                 psi:       0.58 MB

     Dynamical RAM for                hpsi:       0.58 MB

     Dynamical RAM for      wfcinit/wfcrot:       0.58 MB

     Estimated static dynamical RAM per process >      36.79 MB

     Estimated max dynamical RAM per process >      37.96 MB
     Generating pointlists ...
     new r_m :   0.2382 (alat units)  1.6671 (a.u.) for type    1
     new r_m :   0.2382 (alat units)  1.6671 (a.u.) for type    2

     Initial potential from superposition of free atoms

     starting charge    1.99998, renormalised to    2.00000
     Starting wfcs are    2 randomized atomic wfcs +    3 random wfcs

     total cpu time spent up to now is        0.3 secs

     Self-consistent Calculation

     iteration #  1     ecut=    40.00 Ry     beta= 0.70
     Davidson diagonalization with overlap
     ethr =  1.00E-02,  avg # of iterations =  8.2

     Threshold (ethr) on eigenvalues was too large:
     Diagonalizing with lowered threshold

     Davidson diagonalization with overlap
     ethr =  4.81E-05,  avg # of iterations =  4.7

     total cpu time spent up to now is        1.6 secs

     total energy              =      -1.91971209 Ry
     estimated scf accuracy    <       0.00095315 Ry

     total magnetization       =     1.61 Bohr mag/cell
     absolute magnetization    =     1.61 Bohr mag/cell

     iteration #  2     ecut=    40.00 Ry     beta= 0.70
     Davidson diagonalization with overlap
     ethr =  4.77E-05,  avg # of iterations =  2.4

     total cpu time spent up to now is        2.0 secs

     total energy              =      -1.94482928 Ry
     estimated scf accuracy    <       0.00425704 Ry

     total magnetization       =     0.95 Bohr mag/cell
     absolute magnetization    =     0.96 Bohr mag/cell

     iteration #  3     ecut=    40.00 Ry     beta= 0.70
     Davidson diagonalization with overlap
     ethr =  4.77E-05,  avg # of iterations =  1.6

     total cpu time spent up to now is        2.4 secs

     total energy              =      -1.95380404 Ry
     estimated scf accuracy    <       0.00321958 Ry

     total magnetization       =     0.94 Bohr mag/cell
     absolute magnetization    =     0.95 Bohr mag/cell

     iteration #  4     ecut=    40.00 Ry     beta= 0.70
     Davidson diagonalization with overlap
     ethr =  4.77E-05,  avg # of iterations =  2.9

     total cpu time spent up to now is        2.8 secs

     total energy              =      -1.97392221 Ry
     estimated scf accuracy    <       0.00110827 Ry

     total magnetization       =     0.11 Bohr mag/cell
     absolute magnetization    =     0.13 Bohr mag/cell

     iteration #  5     ecut=    40.00 Ry     beta= 0.70
     Davidson diagonalization with overlap
     ethr =  4.77E-05,  avg # of iterations =  1.4

     total cpu time spent up to now is        3.1 secs

     total energy              =      -1.98507580 Ry
     estimated scf accuracy    <       0.00288518 Ry

     total magnetization       =     0.14 Bohr mag/cell
     absolute magnetization    =     0.17 Bohr mag/cell

     iteration #  6     ecut=    40.00 Ry     beta= 0.70
     Davidson diagonalization with overlap
     ethr =  4.77E-05,  avg # of iterations =  1.6

     total cpu time spent up to now is        3.5 secs

     total energy              =      -1.99194333 Ry
     estimated scf accuracy    <       0.00127472 Ry

     total magnetization       =     0.11 Bohr mag/cell
     absolute magnetization    =     0.13 Bohr mag/cell

     iteration #  7     ecut=    40.00 Ry     beta= 0.70
     Davidson diagonalization with overlap
     ethr =  4.77E-05,  avg # of iterations =  2.0

     total cpu time spent up to now is        3.9 secs

     total energy              =      -1.99265937 Ry
     estimated scf accuracy    <       0.00000768 Ry

     total magnetization       =     0.07 Bohr mag/cell
     absolute magnetization    =     0.07 Bohr mag/cell

     iteration #  8     ecut=    40.00 Ry     beta= 0.70
     Davidson diagonalization with overlap
     ethr =  3.84E-07,  avg # of iterations =  3.6

     total cpu time spent up to now is        4.3 secs

     total energy              =      -1.99264353 Ry
     estimated scf accuracy    <       0.00000706 Ry

     total magnetization       =     0.07 Bohr mag/cell
     absolute magnetization    =     0.07 Bohr mag/cell

     iteration #  9     ecut=    40.00 Ry     beta= 0.70
     Davidson diagonalization with overlap
     ethr =  3.53E-07,  avg # of iterations =  1.0

     total cpu time spent up to now is        4.6 secs

     total energy              =      -1.99265817 Ry
     estimated scf accuracy    <       0.00000912 Ry

     total magnetization       =     0.07 Bohr mag/cell
     absolute magnetization    =     0.07 Bohr mag/cell

     iteration # 10     ecut=    40.00 Ry     beta= 0.70
     Davidson diagonalization with overlap
     ethr =  3.53E-07,  avg # of iterations =  1.5

     total cpu time spent up to now is        5.0 secs

     total energy              =      -1.99263199 Ry
     estimated scf accuracy    <       0.00000771 Ry

     total magnetization       =     0.06 Bohr mag/cell
     absolute magnetization    =     0.06 Bohr mag/cell

     iteration # 11     ecut=    40.00 Ry     beta= 0.70
     Davidson diagonalization with overlap
     ethr =  3.53E-07,  avg # of iterations =  2.0

     total cpu time spent up to now is        5.4 secs

     total energy              =      -1.99228478 Ry
     estimated scf accuracy    <       0.00000427 Ry

     total magnetization       =     0.02 Bohr mag/cell
     absolute magnetization    =     0.02 Bohr mag/cell

     iteration # 12     ecut=    40.00 Ry     beta= 0.70
     Davidson diagonalization with overlap
     ethr =  2.13E-07,  avg # of iterations =  2.4

     total cpu time spent up to now is        5.8 secs

     total energy              =      -1.99250293 Ry
     estimated scf accuracy    <       0.00001875 Ry

     total magnetization       =     0.09 Bohr mag/cell
     absolute magnetization    =     0.09 Bohr mag/cell

     iteration # 13     ecut=    40.00 Ry     beta= 0.70
     Davidson diagonalization with overlap
     ethr =  2.13E-07,  avg # of iterations =  1.5

     total cpu time spent up to now is        6.1 secs

     total energy              =      -1.99161924 Ry
     estimated scf accuracy    <       0.00001549 Ry

     total magnetization       =     0.10 Bohr mag/cell
     absolute magnetization    =     0.10 Bohr mag/cell

     iteration # 14     ecut=    40.00 Ry     beta= 0.70
     Davidson diagonalization with overlap
     ethr =  2.13E-07,  avg # of iterations =  2.4

     total cpu time spent up to now is        6.5 secs

     total energy              =      -1.98983247 Ry
     estimated scf accuracy    <       0.00012653 Ry

     total magnetization       =     0.11 Bohr mag/cell
     absolute magnetization    =     0.11 Bohr mag/cell

     iteration # 15     ecut=    40.00 Ry     beta= 0.70
     Davidson diagonalization with overlap
     ethr =  2.13E-07,  avg # of iterations =  2.6

     total cpu time spent up to now is        6.9 secs

     total energy              =      -1.99230351 Ry
     estimated scf accuracy    <       0.00041514 Ry

     total magnetization       =     0.11 Bohr mag/cell
     absolute magnetization    =     0.12 Bohr mag/cell

     iteration # 16     ecut=    40.00 Ry     beta= 0.70
     Davidson diagonalization with overlap
     ethr =  2.13E-07,  avg # of iterations =  2.9

     total cpu time spent up to now is        7.4 secs

     total energy              =      -1.99260955 Ry
     estimated scf accuracy    <       0.00000575 Ry

     total magnetization       =     0.09 Bohr mag/cell
     absolute magnetization    =     0.09 Bohr mag/cell

     iteration # 17     ecut=    40.00 Ry     beta= 0.70
     Davidson diagonalization with overlap
     ethr =  2.13E-07,  avg # of iterations =  1.1

     total cpu time spent up to now is        7.8 secs

     total energy              =      -1.99262310 Ry
     estimated scf accuracy    <       0.00000475 Ry

     total magnetization       =     0.08 Bohr mag/cell
     absolute magnetization    =     0.08 Bohr mag/cell

     iteration # 18     ecut=    40.00 Ry     beta= 0.70
     Davidson diagonalization with overlap
     ethr =  2.13E-07,  avg # of iterations =  1.0

     total cpu time spent up to now is        8.1 secs

     total energy              =      -1.99263199 Ry
     estimated scf accuracy    <       0.00000357 Ry

     total magnetization       =     0.08 Bohr mag/cell
     absolute magnetization    =     0.08 Bohr mag/cell

     iteration # 19     ecut=    40.00 Ry     beta= 0.70
     Davidson diagonalization with overlap
     ethr =  1.78E-07,  avg # of iterations =  1.0

     total cpu time spent up to now is        8.4 secs

     total energy              =      -1.99263739 Ry
     estimated scf accuracy    <       0.00000292 Ry

     total magnetization       =     0.08 Bohr mag/cell
     absolute magnetization    =     0.08 Bohr mag/cell

     iteration # 20     ecut=    40.00 Ry     beta= 0.70
     Davidson diagonalization with overlap
     ethr =  1.46E-07,  avg # of iterations =  1.0

     total cpu time spent up to now is        8.8 secs

     total energy              =      -1.99263326 Ry
     estimated scf accuracy    <       0.00000256 Ry

     total magnetization       =     0.08 Bohr mag/cell
     absolute magnetization    =     0.08 Bohr mag/cell

     iteration # 21     ecut=    40.00 Ry     beta= 0.70
     Davidson diagonalization with overlap
     ethr =  1.28E-07,  avg # of iterations =  1.0

     total cpu time spent up to now is        9.1 secs

     total energy              =      -1.99263998 Ry
     estimated scf accuracy    <       0.00000293 Ry

     total magnetization       =     0.08 Bohr mag/cell
     absolute magnetization    =     0.08 Bohr mag/cell

     iteration # 22     ecut=    40.00 Ry     beta= 0.70
     Davidson diagonalization with overlap
     ethr =  1.28E-07,  avg # of iterations =  1.0

     total cpu time spent up to now is        9.4 secs

     total energy              =      -1.99263107 Ry
     estimated scf accuracy    <       0.00000240 Ry

     total magnetization       =     0.07 Bohr mag/cell
     absolute magnetization    =     0.07 Bohr mag/cell

     iteration # 23     ecut=    40.00 Ry     beta= 0.70
     Davidson diagonalization with overlap
     ethr =  1.20E-07,  avg # of iterations =  1.0

     total cpu time spent up to now is        9.8 secs

     total energy              =      -1.99264780 Ry
     estimated scf accuracy    <       0.00000309 Ry

     total magnetization       =     0.08 Bohr mag/cell
     absolute magnetization    =     0.08 Bohr mag/cell

     iteration # 24     ecut=    40.00 Ry     beta= 0.70
     Davidson diagonalization with overlap
     ethr =  1.20E-07,  avg # of iterations =  1.8

     total cpu time spent up to now is       10.1 secs

     total energy              =      -1.99264502 Ry
     estimated scf accuracy    <       0.00000161 Ry

     total magnetization       =     0.07 Bohr mag/cell
     absolute magnetization    =     0.07 Bohr mag/cell

     iteration # 25     ecut=    40.00 Ry     beta= 0.70
     Davidson diagonalization with overlap
     ethr =  8.06E-08,  avg # of iterations =  2.0

     total cpu time spent up to now is       10.5 secs

     total energy              =      -1.99266581 Ry
     estimated scf accuracy    <       0.00000022 Ry

     total magnetization       =     0.04 Bohr mag/cell
     absolute magnetization    =     0.04 Bohr mag/cell

     iteration # 26     ecut=    40.00 Ry     beta= 0.70
     Davidson diagonalization with overlap
     ethr =  1.11E-08,  avg # of iterations =  2.5

     total cpu time spent up to now is       10.9 secs

     total energy              =      -1.99268921 Ry
     estimated scf accuracy    <       0.00000003 Ry

     total magnetization       =     0.02 Bohr mag/cell
     absolute magnetization    =     0.02 Bohr mag/cell

     iteration # 27     ecut=    40.00 Ry     beta= 0.70
     Davidson diagonalization with overlap
     ethr =  1.37E-09,  avg # of iterations =  2.1

     total cpu time spent up to now is       11.3 secs

     total energy              =      -1.99269059 Ry
     estimated scf accuracy    <       0.00000001 Ry

     total magnetization       =     0.01 Bohr mag/cell
     absolute magnetization    =     0.01 Bohr mag/cell

     iteration # 28     ecut=    40.00 Ry     beta= 0.70
     Davidson diagonalization with overlap
     ethr =  6.01E-10,  avg # of iterations =  2.0

     Magnetic moment per site:
     atom:    1    charge:    0.6448    magn:    0.0040    constr:    0.0000
     atom:    2    charge:    0.6448    magn:    0.0040    constr:    0.0000

     total cpu time spent up to now is       11.6 secs

     End of self-consistent calculation

 ------ SPIN UP ------------


          k = 0.0000 0.0000 0.0000 (  3769 PWs)   bands (ev):

    -9.0658  -1.9265  -0.6031   0.2547   2.5999

     occupation numbers 
     1.0000   0.0000   0.0000   0.0000   0.0000

          k = 0.0000 0.1925 0.0000 (  3788 PWs)   bands (ev):

    -8.7530  -2.5999  -0.1997   0.6439   2.9088

     occupation numbers 
     1.0000   0.0000   0.0000   0.0000   0.0000

          k = 0.0000 0.3849 0.0000 (  3808 PWs)   bands (ev):

    -7.8798  -4.1126   1.0074   1.7488   3.2421

     occupation numbers 
     1.0000   0.0000   0.0000   0.0000   0.0000

          k = 0.0000-0.5774 0.0000 (  3812 PWs)   bands (ev):

    -7.0494  -5.2360   2.4768   2.7852   3.2912

     occupation numbers 
     1.0000   0.0000   0.0000   0.0000   0.0000

          k = 0.1667 0.2887 0.0000 (  3813 PWs)   bands (ev):

    -8.1531  -3.6512   0.6060   1.3775   2.9884

     occupation numbers 
     1.0000   0.0000   0.0000   0.0000   0.0000

          k = 0.1667 0.4811 0.0000 (  3822 PWs)   bands (ev):

    -7.1251  -5.0515   1.6721   2.2037   3.2581

     occupation numbers 
     1.0000   0.0000   0.0000   0.0000   0.0000

          k = 0.3333 0.5774 0.0000 (  3807 PWs)   bands (ev):

    -6.0972  -6.0972   0.9365   3.9992   3.9992

     occupation numbers 
     0.5473   0.5472   0.0000   0.0000   0.0000

 ------ SPIN DOWN ----------


          k = 0.0000 0.0000 0.0000 (  3769 PWs)   bands (ev):

    -9.0461  -1.8978  -0.6002   0.2556   2.6024

     occupation numbers 
     1.0000   0.0000   0.0000   0.0000   0.0000

          k = 0.0000 0.1925 0.0000 (  3788 PWs)   bands (ev):

    -8.7331  -2.5726  -0.1967   0.6449   2.9117

     occupation numbers 
     1.0000   0.0000   0.0000   0.0000   0.0000

          k = 0.0000 0.3849 0.0000 (  3808 PWs)   bands (ev):

    -7.8589  -4.0880   1.0104   1.7507   3.2479

     occupation numbers 
     1.0000   0.0000   0.0000   0.0000   0.0000

          k = 0.0000-0.5774 0.0000 (  3812 PWs)   bands (ev):

    -7.0273  -5.2135   2.4844   2.7891   3.2934

     occupation numbers 
     1.0000   0.0000   0.0000   0.0000   0.0000

          k = 0.1667 0.2887 0.0000 (  3813 PWs)   bands (ev):

    -8.1326  -3.6256   0.6090   1.3790   2.9937

     occupation numbers 
     1.0000   0.0000   0.0000   0.0000   0.0000

          k = 0.1667 0.4811 0.0000 (  3822 PWs)   bands (ev):

    -7.1034  -5.0280   1.6788   2.2069   3.2591

     occupation numbers 
     1.0000   0.0000   0.0000   0.0000   0.0000

          k = 0.3333 0.5774 0.0000 (  3807 PWs)   bands (ev):

    -6.0744  -6.0744   0.9425   4.0032   4.0032

     occupation numbers 
     0.4528   0.4527   0.0000   0.0000   0.0000

     the Fermi energy is    -6.0858 ev

!    total energy              =      -1.99269108 Ry
     estimated scf accuracy    <          6.8E-09 Ry
     smearing contrib. (-TS)   =      -0.00062248 Ry
     internal energy E=F+TS    =      -1.99206860 Ry

     The total energy is F=E-TS. E is the sum of the following terms:
     one-electron contribution =      -3.04475167 Ry
     hartree contribution      =       1.58332066 Ry
     xc contribution           =      -0.95908188 Ry
     ewald contribution        =       0.42844429 Ry

     total magnetization       =     0.01 Bohr mag/cell
     absolute magnetization    =     0.01 Bohr mag/cell

     convergence has been achieved in  28 iterations

     Writing output data file ./hidrophene.save/

     init_run     :      0.19s CPU      0.20s WALL (       1 calls)
     electrons    :     11.34s CPU     11.37s WALL (       1 calls)

     Called by init_run:
     wfcinit      :      0.13s CPU      0.13s WALL (       1 calls)
     wfcinit:atom :      0.00s CPU      0.00s WALL (      14 calls)
     wfcinit:wfcr :      0.11s CPU      0.11s WALL (      14 calls)
     potinit      :      0.02s CPU      0.03s WALL (       1 calls)
     hinit0       :      0.03s CPU      0.03s WALL (       1 calls)

     Called by electrons:
     c_bands      :      8.66s CPU      8.68s WALL (      29 calls)
     sum_band     :      1.89s CPU      1.89s WALL (      29 calls)
     v_of_rho     :      0.43s CPU      0.44s WALL (      29 calls)
     v_h          :      0.04s CPU      0.04s WALL (      29 calls)
     v_xc         :      0.39s CPU      0.39s WALL (      29 calls)
     mix_rho      :      0.32s CPU      0.33s WALL (      29 calls)

     Called by c_bands:
     init_us_2    :      0.41s CPU      0.41s WALL (     826 calls)
     cegterg      :      8.34s CPU      8.36s WALL (     406 calls)

     Called by sum_band:
     sum_band:wei :      0.00s CPU      0.00s WALL (      29 calls)
     sum_band:loo :      1.72s CPU      1.72s WALL (      29 calls)
     sum_band:buf :      0.01s CPU      0.01s WALL (     406 calls)
     sum_band:ini :      0.20s CPU      0.20s WALL (     406 calls)

     Called by *egterg:
     cdiaghg      :      0.03s CPU      0.03s WALL (    1264 calls)
     cegterg:over :      0.22s CPU      0.22s WALL (     872 calls)
     cegterg:upda :      0.13s CPU      0.13s WALL (     872 calls)
     cegterg:last :      0.21s CPU      0.21s WALL (     755 calls)
     h_psi        :      7.70s CPU      7.72s WALL (    1292 calls)
     g_psi        :      0.03s CPU      0.03s WALL (     872 calls)

     Called by h_psi:
     h_psi:calbec :      0.21s CPU      0.21s WALL (    1292 calls)
     vloc_psi     :      7.26s CPU      7.29s WALL (    1292 calls)
     add_vuspsi   :      0.20s CPU      0.20s WALL (    1292 calls)

     General routines
     calbec       :      0.21s CPU      0.21s WALL (    1292 calls)
     fft          :      0.15s CPU      0.15s WALL (     144 calls)
     ffts         :      0.07s CPU      0.07s WALL (      58 calls)
     fftw         :      8.03s CPU      8.05s WALL (   12104 calls)

     Parallel routines

     PWSCF        :     11.61s CPU     11.64s WALL


   This run was terminated on:  12:55:30  25Jan2022            

=------------------------------------------------------------------------------=
   JOB DONE.
=------------------------------------------------------------------------------=
