
     Program PWSCF v.6.6 starts on  7Feb2022 at 15:18: 4 

     This program is part of the open-source Quantum ESPRESSO suite
     for quantum simulation of materials; please cite
         "P. Giannozzi et al., J. Phys.:Condens. Matter 21 395502 (2009);
         "P. Giannozzi et al., J. Phys.:Condens. Matter 29 465901 (2017);
          URL http://www.quantum-espresso.org", 
     in publications or presentations arising from this work. More details at
     http://www.quantum-espresso.org/quote

     Parallel version (MPI), running on     1 processors

     MPI processes distributed on     1 nodes
     Fft bands division:     nmany     =       1
     Waiting for input...
     Reading input from standard input

     Current dimensions of program PWSCF are:
     Max number of different atomic species (ntypx) = 10
     Max number of k-points (npk) =  40000
     Max angular momentum in pseudopotentials (lmaxx) =  3

     Subspace diagonalization in iterative solution of the eigenvalue problem:
     a serial algorithm will be used


     G-vector sticks info
     --------------------
     sticks:   dense  smooth     PW     G-vecs:    dense   smooth      PW
     Sum         547     547    163                30415    30415    5033



     bravais-lattice index     =            4
     lattice parameter (alat)  =       7.0000  a.u.
     unit-cell volume          =     891.1401 (a.u.)^3
     number of atoms/cell      =            2
     number of atomic types    =            2
     number of electrons       =         2.00
     number of Kohn-Sham states=            5
     kinetic-energy cutoff     =      40.0000  Ry
     charge density cutoff     =     160.0000  Ry
     convergence threshold     =      1.0E-08
     mixing beta               =       0.7000
     number of iterations used =            8  plain     mixing
     Exchange-correlation= SLA PW NOGX NOGC
                           (   1   4   0   0   0   0   0)

     celldm(1)=   7.000000  celldm(2)=   0.000000  celldm(3)=   3.000000
     celldm(4)=   0.000000  celldm(5)=   0.000000  celldm(6)=   0.000000

     crystal axes: (cart. coord. in units of alat)
               a(1) = (   1.000000   0.000000   0.000000 )  
               a(2) = (  -0.500000   0.866025   0.000000 )  
               a(3) = (   0.000000   0.000000   3.000000 )  

     reciprocal axes: (cart. coord. in units 2 pi/alat)
               b(1) = (  1.000000  0.577350 -0.000000 )  
               b(2) = (  0.000000  1.154701  0.000000 )  
               b(3) = (  0.000000 -0.000000  0.333333 )  


     PseudoPot. # 1 for H  read from file:
     ../../../pseudo/H.upf
     MD5 check sum: 785d664e2740b342582c379770e72c80
     Pseudo is Norm-conserving, Zval =  1.0
     Generated using ONCVPSP code by D. R. Hamann
     Using radial grid of 1180 points,  3 beta functions with: 
                l(1) =   0
                l(2) =   0
                l(3) =   1

     PseudoPot. # 2 for H  read from file:
     ../../../pseudo/H.upf
     MD5 check sum: 785d664e2740b342582c379770e72c80
     Pseudo is Norm-conserving, Zval =  1.0
     Generated using ONCVPSP code by D. R. Hamann
     Using radial grid of 1180 points,  3 beta functions with: 
                l(1) =   0
                l(2) =   0
                l(3) =   1

     atomic species   valence    mass     pseudopotential
        H1             1.00     1.00000     H ( 1.00)
        H2             1.00     1.00000     H ( 1.00)

     Starting magnetic structure 
     atomic species   magnetization
        H1           1.000
        H2           1.000

      6 Sym. Ops. (no inversion) found


                                    s                        frac. trans.

      isym =  1     identity                                     

 cryst.   s( 1) = (     1          0          0      )
                  (     0          1          0      )
                  (     0          0          1      )

 cart.    s( 1) = (  1.0000000  0.0000000  0.0000000 )
                  (  0.0000000  1.0000000  0.0000000 )
                  (  0.0000000  0.0000000  1.0000000 )


      isym =  2     120 deg rotation - cryst. axis [0,0,1]       

 cryst.   s( 2) = (     0          1          0      )
                  (    -1         -1          0      )
                  (     0          0          1      )

 cart.    s( 2) = ( -0.5000000 -0.8660254  0.0000000 )
                  (  0.8660254 -0.5000000  0.0000000 )
                  (  0.0000000  0.0000000  1.0000000 )


      isym =  3     120 deg rotation - cryst. axis [0,0,-1]      

 cryst.   s( 3) = (    -1         -1          0      )
                  (     1          0          0      )
                  (     0          0          1      )

 cart.    s( 3) = ( -0.5000000  0.8660254  0.0000000 )
                  ( -0.8660254 -0.5000000  0.0000000 )
                  (  0.0000000  0.0000000  1.0000000 )


      isym =  4     inv. 180 deg rotation - cart. axis [1,0,0]   

 cryst.   s( 4) = (    -1          0          0      )
                  (     1          1          0      )
                  (     0          0          1      )

 cart.    s( 4) = ( -1.0000000  0.0000000  0.0000000 )
                  (  0.0000000  1.0000000  0.0000000 )
                  (  0.0000000  0.0000000  1.0000000 )


      isym =  5     inv. 180 deg rotation - cryst. axis [0,1,0]  

 cryst.   s( 5) = (     1          1          0      )
                  (     0         -1          0      )
                  (     0          0          1      )

 cart.    s( 5) = (  0.5000000  0.8660254  0.0000000 )
                  (  0.8660254 -0.5000000  0.0000000 )
                  (  0.0000000  0.0000000  1.0000000 )


      isym =  6     inv. 180 deg rotation - cryst. axis [1,1,0]  

 cryst.   s( 6) = (     0         -1          0      )
                  (    -1          0          0      )
                  (     0          0          1      )

 cart.    s( 6) = (  0.5000000 -0.8660254  0.0000000 )
                  ( -0.8660254 -0.5000000  0.0000000 )
                  (  0.0000000  0.0000000  1.0000000 )


     point group C_3v (3m)  
     there are  3 classes
     the character table:

       E     2C3   3s_v 
A_1    1.00  1.00  1.00
A_2    1.00  1.00 -1.00
E      2.00 -1.00  0.00

     the symmetry operations in each class and the name of the first element:

     E        1
          identity                                               
     2C3      2    3
          120 deg rotation - cryst. axis [0,0,1]                 
     3s_v     4    5    6
          inv. 180 deg rotation - cart. axis [1,0,0]             

   Cartesian axes

     site n.     atom                  positions (alat units)
         1           H1  tau(   1) = (   0.0000000   0.0000000   0.1500000  )
         2           H2  tau(   2) = (  -0.0000000   0.5773503  -0.1500000  )

   Crystallographic axes

     site n.     atom                  positions (cryst. coord.)
         1           H1  tau(   1) = (  0.0000000  0.0000000  0.0500000  )
         2           H2  tau(   2) = (  0.3333333  0.6666667 -0.0500000  )

     number of k points=     7  Gaussian smearing, width (Ry)=  0.0010
                       cart. coord. in units 2pi/alat
        k(    1) = (   0.0000000   0.0000000   0.0000000), wk =   0.0277778
        k(    2) = (   0.0000000   0.1924501   0.0000000), wk =   0.1666667
        k(    3) = (   0.0000000   0.3849002   0.0000000), wk =   0.1666667
        k(    4) = (   0.0000000  -0.5773503   0.0000000), wk =   0.0833333
        k(    5) = (   0.1666667   0.2886751   0.0000000), wk =   0.1666667
        k(    6) = (   0.1666667   0.4811252   0.0000000), wk =   0.3333333
        k(    7) = (   0.3333333   0.5773503   0.0000000), wk =   0.0555556

                       cryst. coord.
        k(    1) = (   0.0000000   0.0000000   0.0000000), wk =   0.0277778
        k(    2) = (   0.0000000   0.1666667   0.0000000), wk =   0.1666667
        k(    3) = (   0.0000000   0.3333333   0.0000000), wk =   0.1666667
        k(    4) = (   0.0000000  -0.5000000   0.0000000), wk =   0.0833333
        k(    5) = (   0.1666667   0.1666667   0.0000000), wk =   0.1666667
        k(    6) = (   0.1666667   0.3333333   0.0000000), wk =   0.3333333
        k(    7) = (   0.3333333   0.3333333   0.0000000), wk =   0.0555556

     Dense  grid:    30415 G-vectors     FFT dimensions: (  30,  30,  90)

     Dynamical RAM for                 wfc:       0.29 MB

     Dynamical RAM for     wfc (w. buffer):       4.36 MB

     Dynamical RAM for           str. fact:       0.93 MB

     Dynamical RAM for           local pot:       0.00 MB

     Dynamical RAM for          nlocal pot:       0.58 MB

     Dynamical RAM for                qrad:       0.35 MB

     Dynamical RAM for          rho,v,vnew:       6.49 MB

     Dynamical RAM for               rhoin:       2.16 MB

     Dynamical RAM for            rho*nmix:      14.85 MB

     Dynamical RAM for           G-vectors:       1.97 MB

     Dynamical RAM for          h,s,v(r/c):       0.00 MB

     Dynamical RAM for          <psi|beta>:       0.00 MB

     Dynamical RAM for                 psi:       0.58 MB

     Dynamical RAM for                hpsi:       0.58 MB

     Dynamical RAM for      wfcinit/wfcrot:       0.58 MB

     Estimated static dynamical RAM per process >      36.79 MB

     Estimated max dynamical RAM per process >      37.96 MB
     Generating pointlists ...
     new r_m :   0.2684 (alat units)  1.8787 (a.u.) for type    1
     new r_m :   0.2684 (alat units)  1.8787 (a.u.) for type    2

     Initial potential from superposition of free atoms

     starting charge    1.99998, renormalised to    2.00000
     Starting wfcs are    2 randomized atomic wfcs +    3 random wfcs

     total cpu time spent up to now is        0.3 secs

     Self-consistent Calculation

     iteration #  1     ecut=    40.00 Ry     beta= 0.70
     Davidson diagonalization with overlap
     ethr =  1.00E-02,  avg # of iterations =  7.6

     Threshold (ethr) on eigenvalues was too large:
     Diagonalizing with lowered threshold

     Davidson diagonalization with overlap
     ethr =  1.25E-04,  avg # of iterations =  3.6

     total cpu time spent up to now is        1.5 secs

     total energy              =      -1.90382557 Ry
     estimated scf accuracy    <       0.00257728 Ry

     total magnetization       =     2.00 Bohr mag/cell
     absolute magnetization    =     2.00 Bohr mag/cell

     iteration #  2     ecut=    40.00 Ry     beta= 0.70
     Davidson diagonalization with overlap
     ethr =  1.29E-04,  avg # of iterations =  1.1

     total cpu time spent up to now is        1.9 secs

     total energy              =      -1.90383956 Ry
     estimated scf accuracy    <       0.00016217 Ry

     total magnetization       =     2.00 Bohr mag/cell
     absolute magnetization    =     2.00 Bohr mag/cell

     iteration #  3     ecut=    40.00 Ry     beta= 0.70
     Davidson diagonalization with overlap
     ethr =  8.11E-06,  avg # of iterations =  3.7

     total cpu time spent up to now is        2.3 secs

     total energy              =      -1.90384337 Ry
     estimated scf accuracy    <       0.00000042 Ry

     total magnetization       =     2.00 Bohr mag/cell
     absolute magnetization    =     2.00 Bohr mag/cell

     iteration #  4     ecut=    40.00 Ry     beta= 0.70
     Davidson diagonalization with overlap
     ethr =  2.10E-08,  avg # of iterations =  2.7

     Magnetic moment per site:
     atom:    1    charge:    0.7682    magn:    0.7682    constr:    0.0000
     atom:    2    charge:    0.7682    magn:    0.7682    constr:    0.0000

     total cpu time spent up to now is        2.7 secs

     End of self-consistent calculation

 ------ SPIN UP ------------


          k = 0.0000 0.0000 0.0000 (  3769 PWs)   bands (ev):

    -9.2511  -5.1939   0.0281   0.3642   2.5072

     occupation numbers 
     1.0000   1.0000   0.0000   0.0000   0.0000

          k = 0.0000 0.1925 0.0000 (  3788 PWs)   bands (ev):

    -8.9732  -5.2776   0.4085   0.4583   2.8057

     occupation numbers 
     1.0000   1.0000   0.0000   0.0000   0.0000

          k = 0.0000 0.3849 0.0000 (  3808 PWs)   bands (ev):

    -8.2198  -5.7118   0.7507   1.5229   2.7110

     occupation numbers 
     1.0000   1.0000   0.0000   0.0000   0.0000

          k = 0.0000-0.5774 0.0000 (  3812 PWs)   bands (ev):

    -7.5439  -6.2762   0.9614   2.4614   3.3194

     occupation numbers 
     1.0000   1.0000   0.0000   0.0000   0.0000

          k = 0.1667 0.2887 0.0000 (  3813 PWs)   bands (ev):

    -8.4522  -5.5400   0.7330   1.1348   2.7147

     occupation numbers 
     1.0000   1.0000   0.0000   0.0000   0.0000

          k = 0.1667 0.4811 0.0000 (  3822 PWs)   bands (ev):

    -7.6043  -6.1738   1.0662   1.9252   3.0258

     occupation numbers 
     1.0000   1.0000   0.0000   0.0000   0.0000

          k = 0.3333 0.5774 0.0000 (  3807 PWs)   bands (ev):

    -6.8385  -6.8385   0.8066   2.9363   2.9366

     occupation numbers 
     1.0000   1.0000   0.0000   0.0000   0.0000

 ------ SPIN DOWN ----------


          k = 0.0000 0.0000 0.0000 (  3769 PWs)   bands (ev):

    -4.7945  -0.8985   0.3582   2.3776   3.2874

     occupation numbers 
     0.0000   0.0000   0.0000   0.0000   0.0000

          k = 0.0000 0.1925 0.0000 (  3788 PWs)   bands (ev):

    -4.4433  -0.6146   0.7584   2.4318   3.6625

     occupation numbers 
     0.0000   0.0000   0.0000   0.0000   0.0000

          k = 0.0000 0.3849 0.0000 (  3808 PWs)   bands (ev):

    -3.4411  -0.2726   1.9191   2.1796   4.4362

     occupation numbers 
     0.0000   0.0000   0.0000   0.0000   0.0000

          k = 0.0000-0.5774 0.0000 (  3812 PWs)   bands (ev):

    -2.3838  -1.0338   2.8554   3.5535   3.9646

     occupation numbers 
     0.0000   0.0000   0.0000   0.0000   0.0000

          k = 0.1667 0.2887 0.0000 (  3813 PWs)   bands (ev):

    -3.7624  -0.2464   1.5527   2.3018   4.2833

     occupation numbers 
     0.0000   0.0000   0.0000   0.0000   0.0000

          k = 0.1667 0.4811 0.0000 (  3822 PWs)   bands (ev):

    -2.5559  -0.6670   2.6776   3.0995   3.8700

     occupation numbers 
     0.0000   0.0000   0.0000   0.0000   0.0000

          k = 0.3333 0.5774 0.0000 (  3807 PWs)   bands (ev):

    -1.4553  -1.4553   2.6567   4.4442   4.4443

     occupation numbers 
     0.0000   0.0000   0.0000   0.0000   0.0000

     the Fermi energy is    -4.9815 ev

!    total energy              =      -1.90384347 Ry
     estimated scf accuracy    <          8.3E-10 Ry
     smearing contrib. (-TS)   =      -0.00000000 Ry
     internal energy E=F+TS    =      -1.90384347 Ry

     The total energy is F=E-TS. E is the sum of the following terms:
     one-electron contribution =      -2.45776255 Ry
     hartree contribution      =       1.47434118 Ry
     xc contribution           =      -1.14872345 Ry
     ewald contribution        =       0.22830135 Ry

     total magnetization       =     2.00 Bohr mag/cell
     absolute magnetization    =     2.00 Bohr mag/cell

     convergence has been achieved in   4 iterations

     Writing output data file ./hidrophene.save/

     init_run     :      0.22s CPU      0.22s WALL (       1 calls)
     electrons    :      2.36s CPU      2.37s WALL (       1 calls)

     Called by init_run:
     wfcinit      :      0.13s CPU      0.13s WALL (       1 calls)
     wfcinit:atom :      0.00s CPU      0.00s WALL (      14 calls)
     wfcinit:wfcr :      0.11s CPU      0.11s WALL (      14 calls)
     potinit      :      0.03s CPU      0.03s WALL (       1 calls)
     hinit0       :      0.04s CPU      0.04s WALL (       1 calls)

     Called by electrons:
     c_bands      :      1.96s CPU      1.96s WALL (       5 calls)
     sum_band     :      0.33s CPU      0.33s WALL (       5 calls)
     v_of_rho     :      0.06s CPU      0.06s WALL (       5 calls)
     v_h          :      0.01s CPU      0.01s WALL (       5 calls)
     v_xc         :      0.06s CPU      0.06s WALL (       5 calls)
     mix_rho      :      0.01s CPU      0.02s WALL (       5 calls)

     Called by c_bands:
     init_us_2    :      0.08s CPU      0.08s WALL (     154 calls)
     cegterg      :      1.91s CPU      1.91s WALL (      70 calls)

     Called by sum_band:
     sum_band:wei :      0.00s CPU      0.00s WALL (       5 calls)
     sum_band:loo :      0.30s CPU      0.30s WALL (       5 calls)
     sum_band:buf :      0.00s CPU      0.00s WALL (      70 calls)
     sum_band:ini :      0.03s CPU      0.03s WALL (      70 calls)

     Called by *egterg:
     cdiaghg      :      0.01s CPU      0.01s WALL (     318 calls)
     cegterg:over :      0.06s CPU      0.06s WALL (     262 calls)
     cegterg:upda :      0.04s CPU      0.04s WALL (     262 calls)
     cegterg:last :      0.06s CPU      0.06s WALL (     195 calls)
     h_psi        :      1.82s CPU      1.82s WALL (     346 calls)
     g_psi        :      0.01s CPU      0.01s WALL (     262 calls)

     Called by h_psi:
     h_psi:calbec :      0.05s CPU      0.05s WALL (     346 calls)
     vloc_psi     :      1.72s CPU      1.72s WALL (     346 calls)
     add_vuspsi   :      0.05s CPU      0.05s WALL (     346 calls)

     General routines
     calbec       :      0.05s CPU      0.05s WALL (     346 calls)
     fft          :      0.03s CPU      0.03s WALL (      24 calls)
     ffts         :      0.01s CPU      0.01s WALL (      10 calls)
     fftw         :      1.81s CPU      1.81s WALL (    2740 calls)

     Parallel routines

     PWSCF        :      2.67s CPU      2.69s WALL


   This run was terminated on:  15:18: 6   7Feb2022            

=------------------------------------------------------------------------------=
   JOB DONE.
=------------------------------------------------------------------------------=
Note: The following floating-point exceptions are signalling: IEEE_DENORMAL
