
     Program PWSCF v.5.1 starts on 21Oct2017 at  0:38:47 

     This program is part of the open-source Quantum ESPRESSO suite
     for quantum simulation of materials; please cite
         "P. Giannozzi et al., J. Phys.:Condens. Matter 21 395502 (2009);
          URL http://www.quantum-espresso.org", 
     in publications or presentations arising from this work. More details at
     http://www.quantum-espresso.org/quote

     Parallel version (MPI), running on     1 processors
     Waiting for input...
     Reading input from standard input

     Current dimensions of program PWSCF are:
     Max number of different atomic species (ntypx) = 10
     Max number of k-points (npk) =  40000
     Max angular momentum in pseudopotentials (lmaxx) =  3

     Atomic positions and unit cell read from directory:
     ./bn_nscf_shifted.save/


     Subspace diagonalization in iterative solution of the eigenvalue problem:
     a serial algorithm will be used


     G-vector sticks info
     --------------------
     sticks:   dense  smooth     PW     G-vecs:    dense   smooth      PW
     Sum         367     367    109                24333    24333    4015



     bravais-lattice index     =            4
     lattice parameter (alat)  =       4.7243  a.u.
     unit-cell volume          =     386.5791 (a.u.)^3
     number of atoms/cell      =            2
     number of atomic types    =            2
     number of electrons       =         8.00
     number of Kohn-Sham states=           10
     kinetic-energy cutoff     =      60.0000  Ry
     charge density cutoff     =     240.0000  Ry
     Exchange-correlation      =  SLA  PZ   NOGX NOGC ( 1  1  0  0 0)

     celldm(1)=   4.724315  celldm(2)=   0.000000  celldm(3)=   4.233418
     celldm(4)=   0.000000  celldm(5)=   0.000000  celldm(6)=   0.000000

     crystal axes: (cart. coord. in units of alat)
               a(1) = (   1.000000   0.000000   0.000000 )  
               a(2) = (  -0.500000   0.866025   0.000000 )  
               a(3) = (   0.000000   0.000000   4.233418 )  

     reciprocal axes: (cart. coord. in units 2 pi/alat)
               b(1) = (  1.000000  0.577350 -0.000000 )  
               b(2) = (  0.000000  1.154701  0.000000 )  
               b(3) = (  0.000000 -0.000000  0.236216 )  


     PseudoPot. # 1 for B  read from file:
     ./psps/B.pz-vbc.UPF
     MD5 check sum: b59596b5d63edeea6a2b3a0beace49c5
     Pseudo is Norm-conserving, Zval =  3.0
     Generated by new atomic code, or converted to UPF format
     Using radial grid of  157 points,  1 beta functions with: 
                l(1) =   0

     PseudoPot. # 2 for N  read from file:
     ./psps/N.pz-vbc.UPF
     MD5 check sum: f7a51f6f78412844d17f6e69b370b417
     Pseudo is Norm-conserving, Zval =  5.0
     Generated by new atomic code, or converted to UPF format
     Using radial grid of  161 points,  1 beta functions with: 
                l(1) =   0

     atomic species   valence    mass     pseudopotential
        B              3.00     1.00000     B ( 1.00)
        N              5.00     1.00000     N ( 1.00)

     12 Sym. Ops. (no inversion) found


                                    s                        frac. trans.

      isym =  1     identity                                     

 cryst.   s( 1) = (     1          0          0      )
                  (     0          1          0      )
                  (     0          0          1      )

 cart.    s( 1) = (  1.0000000  0.0000000  0.0000000 )
                  (  0.0000000  1.0000000  0.0000000 )
                  (  0.0000000  0.0000000  1.0000000 )


      isym =  2     180 deg rotation - cart. axis [0,1,0]        

 cryst.   s( 2) = (    -1          0          0      )
                  (     1          1          0      )
                  (     0          0         -1      )

 cart.    s( 2) = ( -1.0000000  0.0000000  0.0000000 )
                  (  0.0000000  1.0000000  0.0000000 )
                  (  0.0000000  0.0000000 -1.0000000 )


      isym =  3     120 deg rotation - cryst. axis [0,0,1]       

 cryst.   s( 3) = (     0          1          0      )
                  (    -1         -1          0      )
                  (     0          0          1      )

 cart.    s( 3) = ( -0.5000000 -0.8660254  0.0000000 )
                  (  0.8660254 -0.5000000  0.0000000 )
                  (  0.0000000  0.0000000  1.0000000 )


      isym =  4     120 deg rotation - cryst. axis [0,0,-1]      

 cryst.   s( 4) = (    -1         -1          0      )
                  (     1          0          0      )
                  (     0          0          1      )

 cart.    s( 4) = ( -0.5000000  0.8660254  0.0000000 )
                  ( -0.8660254 -0.5000000  0.0000000 )
                  (  0.0000000  0.0000000  1.0000000 )


      isym =  5     180 deg rotation - cryst. axis [1,-1,0]      

 cryst.   s( 5) = (     0         -1          0      )
                  (    -1          0          0      )
                  (     0          0         -1      )

 cart.    s( 5) = (  0.5000000 -0.8660254  0.0000000 )
                  ( -0.8660254 -0.5000000  0.0000000 )
                  (  0.0000000  0.0000000 -1.0000000 )


      isym =  6     180 deg rotation - cryst. axis [2,1,0]       

 cryst.   s( 6) = (     1          1          0      )
                  (     0         -1          0      )
                  (     0          0         -1      )

 cart.    s( 6) = (  0.5000000  0.8660254  0.0000000 )
                  (  0.8660254 -0.5000000  0.0000000 )
                  (  0.0000000  0.0000000 -1.0000000 )


      isym =  7     inv. 180 deg rotation - cart. axis [0,0,1]   

 cryst.   s( 7) = (     1          0          0      )
                  (     0          1          0      )
                  (     0          0         -1      )

 cart.    s( 7) = (  1.0000000  0.0000000  0.0000000 )
                  (  0.0000000  1.0000000  0.0000000 )
                  (  0.0000000  0.0000000 -1.0000000 )


      isym =  8     inv. 180 deg rotation - cart. axis [1,0,0]   

 cryst.   s( 8) = (    -1          0          0      )
                  (     1          1          0      )
                  (     0          0          1      )

 cart.    s( 8) = ( -1.0000000  0.0000000  0.0000000 )
                  (  0.0000000  1.0000000  0.0000000 )
                  (  0.0000000  0.0000000  1.0000000 )


      isym =  9     inv.  60 deg rotation - cryst. axis [0,0,1]  

 cryst.   s( 9) = (    -1         -1          0      )
                  (     1          0          0      )
                  (     0          0         -1      )

 cart.    s( 9) = ( -0.5000000  0.8660254  0.0000000 )
                  ( -0.8660254 -0.5000000  0.0000000 )
                  (  0.0000000  0.0000000 -1.0000000 )


      isym = 10     inv.  60 deg rotation - cryst. axis [0,0,-1] 

 cryst.   s(10) = (     0          1          0      )
                  (    -1         -1          0      )
                  (     0          0         -1      )

 cart.    s(10) = ( -0.5000000 -0.8660254  0.0000000 )
                  (  0.8660254 -0.5000000  0.0000000 )
                  (  0.0000000  0.0000000 -1.0000000 )


      isym = 11     inv. 180 deg rotation - cryst. axis [0,1,0]  

 cryst.   s(11) = (     1          1          0      )
                  (     0         -1          0      )
                  (     0          0          1      )

 cart.    s(11) = (  0.5000000  0.8660254  0.0000000 )
                  (  0.8660254 -0.5000000  0.0000000 )
                  (  0.0000000  0.0000000  1.0000000 )


      isym = 12     inv. 180 deg rotation - cryst. axis [1,1,0]  

 cryst.   s(12) = (     0         -1          0      )
                  (    -1          0          0      )
                  (     0          0          1      )

 cart.    s(12) = (  0.5000000 -0.8660254  0.0000000 )
                  ( -0.8660254 -0.5000000  0.0000000 )
                  (  0.0000000  0.0000000  1.0000000 )


     point group D_3h (-62m)
     there are  6 classes
     the character table:

       E     2C3   3C2   s_h   2S3   3s_v 
A'_1   1.00  1.00  1.00  1.00  1.00  1.00
A'_2   1.00  1.00 -1.00  1.00  1.00 -1.00
E'     2.00 -1.00  0.00  2.00 -1.00  0.00
A''1   1.00  1.00  1.00 -1.00 -1.00 -1.00
A''2   1.00  1.00 -1.00 -1.00 -1.00  1.00
E''    2.00 -1.00  0.00 -2.00  1.00  0.00

     the symmetry operations in each class:
     E        1
     3C2      2    6    5
     2C3      3    4
     s_h      7
     3s_v     8   11   12
     2S3      9   10

   Cartesian axes

     site n.     atom                  positions (alat units)
         1           B   tau(   1) = (   0.5000000   0.2886751   0.0000000  )
         2           N   tau(   2) = (  -0.5000000  -0.2886751   0.0000000  )

   Crystallographic axes

     site n.     atom                  positions (cryst. coord.)
         1           B   tau(   1) = (  0.6666667  0.3333333  0.0000000  )
         2           N   tau(   2) = ( -0.6666667 -0.3333333  0.0000000  )

     number of k points=    14
                       cart. coord. in units 2pi/alat
        k(    1) = (   0.0000000   0.0000000   0.0000000), wk =   0.0178572
        k(    2) = (   0.0000000   0.2886751   0.0000000), wk =   0.1071428
        k(    3) = (   0.0000000  -0.5773503   0.0000000), wk =   0.0535714
        k(    4) = (   0.2500000   0.4330127   0.0000000), wk =   0.1071428
        k(    5) = (   0.1000000  -0.0577350   0.0000000), wk =   0.1071428
        k(    6) = (   0.3500000   0.3752777   0.0000000), wk =   0.2142858
        k(    7) = (  -0.1500000   0.3752777   0.0000000), wk =   0.2142858
        k(    8) = (   0.1000000   0.5196152   0.0000000), wk =   0.2142858
        k(    9) = (  -0.1500000   0.0866025   0.0000000), wk =   0.1071428
        k(   10) = (   0.3500000   0.0866025   0.0000000), wk =   0.2142858
        k(   11) = (   0.6000000  -0.0577350   0.0000000), wk =   0.2142858
        k(   12) = (   0.3500000  -0.2020726   0.0000000), wk =   0.1071428
        k(   13) = (  -0.4000000   0.2309401   0.0000000), wk =   0.1071428
        k(   14) = (   0.1000000   0.2309401   0.0000000), wk =   0.2142858

                       cryst. coord.
        k(    1) = (   0.0000000   0.0000000   0.0000000), wk =   0.0178572
        k(    2) = (   0.0000000   0.2500000   0.0000000), wk =   0.1071428
        k(    3) = (   0.0000000  -0.5000000   0.0000000), wk =   0.0535714
        k(    4) = (   0.2500000   0.2500000   0.0000000), wk =   0.1071428
        k(    5) = (   0.1000000  -0.1000000   0.0000000), wk =   0.1071428
        k(    6) = (   0.3500000   0.1500000   0.0000000), wk =   0.2142858
        k(    7) = (  -0.1500000   0.4000000   0.0000000), wk =   0.2142858
        k(    8) = (   0.1000000   0.4000000   0.0000000), wk =   0.2142858
        k(    9) = (  -0.1500000   0.1500000   0.0000000), wk =   0.1071428
        k(   10) = (   0.3500000  -0.1000000   0.0000000), wk =   0.2142858
        k(   11) = (   0.6000000  -0.3500000   0.0000000), wk =   0.2142858
        k(   12) = (   0.3500000  -0.3500000   0.0000000), wk =   0.1071428
        k(   13) = (  -0.4000000   0.4000000   0.0000000), wk =   0.1071428
        k(   14) = (   0.1000000   0.1500000   0.0000000), wk =   0.2142858

     Dense  grid:    24333 G-vectors     FFT dimensions: (  24,  24, 100)

     Largest allocated arrays     est. size (Mb)     dimensions
        Kohn-Sham Wavefunctions         0.47 Mb     (    3056,   10)
        NL pseudopotentials             0.09 Mb     (    3056,    2)
        Each V/rho on FFT grid          0.88 Mb     (   57600)
        Each G-vector array             0.19 Mb     (   24333)
        G-vector shells                 0.01 Mb     (    1309)
     Largest temporary arrays     est. size (Mb)     dimensions
        Auxiliary wavefunctions         1.87 Mb     (    3056,   40)
        Each subspace H/S matrix        0.02 Mb     (      40,   40)
        Each <psi_i|beta_j> matrix      0.00 Mb     (       2,   10)

     The potential is recalculated from file :
     ./bn_nscf_shifted.save/charge-density.dat

     Starting wfc are    8 randomized atomic wfcs +    2 random wfc

     Band Structure Calculation
     Davidson diagonalization with overlap

     Computing kpt #:     1
     total cpu time spent up to now is        0.5 secs

     Computing kpt #:     2
     total cpu time spent up to now is        0.8 secs

     Computing kpt #:     3
     total cpu time spent up to now is        1.2 secs

     Computing kpt #:     4
     total cpu time spent up to now is        1.5 secs

     Computing kpt #:     5
     total cpu time spent up to now is        1.9 secs

     Computing kpt #:     6
     total cpu time spent up to now is        2.2 secs

     Computing kpt #:     7
     total cpu time spent up to now is        2.6 secs

     Computing kpt #:     8
     total cpu time spent up to now is        3.0 secs

     Computing kpt #:     9
     total cpu time spent up to now is        3.4 secs

     Computing kpt #:    10
     total cpu time spent up to now is        3.7 secs

     Computing kpt #:    11
     total cpu time spent up to now is        4.2 secs

     Computing kpt #:    12
     total cpu time spent up to now is        4.6 secs

     Computing kpt #:    13
     total cpu time spent up to now is        4.9 secs

     Computing kpt #:    14
     total cpu time spent up to now is        5.3 secs

     ethr =  1.00E-07,  avg # of iterations = 16.0

     total cpu time spent up to now is        5.3 secs

     End of band structure calculation

          k = 0.0000 0.0000 0.0000 (  3031 PWs)   bands (ev):

   -20.3439  -8.1161  -4.1513  -4.1513   1.9554   3.5642   4.4131   8.0863
     8.7357   8.7357

     occupation numbers 
     1.0000   1.0000   1.0000   1.0000   0.0000   0.0000   0.0000   0.0000
     0.0000   0.0000

          k = 0.0000 0.2887 0.0000 (  3032 PWs)   bands (ev):

   -19.1877  -7.8765  -6.5356  -5.7880   3.9099   5.0014   6.3224   7.0367
     8.1762  11.0420

     occupation numbers 
     1.0000   1.0000   1.0000   1.0000   0.0000   0.0000   0.0000   0.0000
     0.0000   0.0000

          k = 0.0000-0.5774 0.0000 (  3056 PWs)   bands (ev):

   -17.2362 -11.6774  -6.9866  -3.6877   1.9033   6.9737   9.7031  10.2350
    10.7519  11.7704

     occupation numbers 
     1.0000   1.0000   1.0000   1.0000   0.0000   0.0000   0.0000   0.0000
     0.0000   0.0000

          k = 0.2500 0.4330 0.0000 (  3046 PWs)   bands (ev):

   -17.3586 -10.4191  -8.6729  -3.9165   2.8883   7.7111   9.1594  10.1407
    11.1239  11.8069

     occupation numbers 
     1.0000   1.0000   1.0000   1.0000   0.0000   0.0000   0.0000   0.0000
     0.0000   0.0000

          k = 0.1000-0.0577 0.0000 (  3010 PWs)   bands (ev):

   -20.1516  -7.8553  -4.9254  -4.5130   2.2849   3.8485   4.7391   8.1171
     8.5526   9.5909

     occupation numbers 
     1.0000   1.0000   1.0000   1.0000   0.0000   0.0000   0.0000   0.0000
     0.0000   0.0000

          k = 0.3500 0.3753 0.0000 (  3041 PWs)   bands (ev):

   -17.3178 -10.9971  -7.9536  -3.8420   2.5238   7.7844   9.3425   9.5500
    10.7809  12.2714

     occupation numbers 
     1.0000   1.0000   1.0000   1.0000   0.0000   0.0000   0.0000   0.0000
     0.0000   0.0000

          k =-0.1500 0.3753 0.0000 (  3027 PWs)   bands (ev):

   -18.2070  -9.4988  -7.3694  -5.1579   4.1845   5.7577   7.6926   8.1686
     9.6162  12.0891

     occupation numbers 
     1.0000   1.0000   1.0000   1.0000   0.0000   0.0000   0.0000   0.0000
     0.0000   0.0000

          k = 0.1000 0.5196 0.0000 (  3040 PWs)   bands (ev):

   -17.2800 -11.3520  -7.4659  -3.7703   2.2218   7.5577   9.0531   9.9642
    11.0427  11.7764

     occupation numbers 
     1.0000   1.0000   1.0000   1.0000   0.0000   0.0000   0.0000   0.0000
     0.0000   0.0000

          k =-0.1500 0.0866 0.0000 (  3020 PWs)   bands (ev):

   -19.9146  -7.5340  -5.7732  -4.9039   2.6834   4.1909   5.1339   7.9979
     8.4037  10.2198

     occupation numbers 
     1.0000   1.0000   1.0000   1.0000   0.0000   0.0000   0.0000   0.0000
     0.0000   0.0000

          k = 0.3500 0.0866 0.0000 (  3031 PWs)   bands (ev):

   -18.5976  -8.9823  -6.6856  -5.7120   4.7153   4.9843   7.1494   7.3761
     8.8532  11.7450

     occupation numbers 
     1.0000   1.0000   1.0000   1.0000   0.0000   0.0000   0.0000   0.0000
     0.0000   0.0000

          k = 0.6000-0.0577 0.0000 (  3035 PWs)   bands (ev):

   -16.7881 -11.0155  -9.3071  -3.0053   1.9506   9.6964   9.8418  11.0273
    12.1786  12.6995

     occupation numbers 
     1.0000   1.0000   1.0000   1.0000   0.0000   0.0000   0.0000   0.0000
     0.0000   0.0000

          k = 0.3500-0.2021 0.0000 (  3044 PWs)   bands (ev):

   -18.2268  -9.9819  -6.5264  -5.1822   3.9228   5.6131   7.5180   7.7164
     8.7196  12.3438

     occupation numbers 
     1.0000   1.0000   1.0000   1.0000   0.0000   0.0000   0.0000   0.0000
     0.0000   0.0000

          k =-0.4000 0.2309 0.0000 (  3052 PWs)   bands (ev):

   -17.7493 -10.8481  -6.7771  -4.4825   2.9611   6.4411   7.9026   8.7255
     9.6913  12.8418

     occupation numbers 
     1.0000   1.0000   1.0000   1.0000   0.0000   0.0000   0.0000   0.0000
     0.0000   0.0000

          k = 0.1000 0.2309 0.0000 (  3028 PWs)   bands (ev):

   -19.4532  -6.9969  -6.9020  -5.7508   3.4701   4.7932   5.9202   7.4205
     8.8305  10.4459

     occupation numbers 
     1.0000   1.0000   1.0000   1.0000   0.0000   0.0000   0.0000   0.0000
     0.0000   0.0000

     highest occupied, lowest unoccupied level (ev):    -3.0053    1.9033

     Writing output data file bn_nscf_shifted.save

     init_run     :      0.07s CPU      0.08s WALL (       1 calls)
     electrons    :      8.73s CPU      5.10s WALL (       1 calls)

     Called by init_run:
     wfcinit      :      0.00s CPU      0.00s WALL (       1 calls)
     potinit      :      0.02s CPU      0.02s WALL (       1 calls)

     Called by electrons:
     c_bands      :      8.73s CPU      5.10s WALL (       1 calls)
     v_of_rho     :      0.01s CPU      0.01s WALL (       1 calls)
     v_h          :      0.00s CPU      0.00s WALL (       1 calls)
     v_xc         :      0.01s CPU      0.01s WALL (       1 calls)

     Called by c_bands:
     init_us_2    :      0.00s CPU      0.00s WALL (      14 calls)
     cegterg      :      8.01s CPU      4.67s WALL (      15 calls)

     Called by sum_band:

     Called by *egterg:
     h_psi        :      7.43s CPU      4.33s WALL (     253 calls)
     g_psi        :      0.06s CPU      0.03s WALL (     224 calls)
     cdiaghg      :      0.27s CPU      0.15s WALL (     238 calls)
     cegterg:over :      0.32s CPU      0.22s WALL (     224 calls)
     cegterg:upda :      0.30s CPU      0.20s WALL (     224 calls)
     cegterg:last :      0.18s CPU      0.10s WALL (      50 calls)

     Called by h_psi:
     h_psi:vloc   :      7.29s CPU      4.24s WALL (     253 calls)
     h_psi:vnl    :      0.11s CPU      0.07s WALL (     253 calls)
     add_vuspsi   :      0.06s CPU      0.03s WALL (     253 calls)

     General routines
     calbec       :      0.05s CPU      0.03s WALL (     253 calls)
     fft          :      0.01s CPU      0.01s WALL (       3 calls)
     fftw         :      6.78s CPU      3.94s WALL (    3054 calls)

     Parallel routines
     fft_scatter  :      0.52s CPU      0.28s WALL (    3057 calls)

     PWSCF        :     9.04s CPU         5.39s WALL


   This run was terminated on:   0:38:53  21Oct2017            

=------------------------------------------------------------------------------=
   JOB DONE.
=------------------------------------------------------------------------------=
