
     Program PWSCF v.5.1 (svn rev. 440) starts on  5Oct2015 at 14:21:35 

     This program is part of the open-source Quantum ESPRESSO suite
     for quantum simulation of materials; please cite
         "P. Giannozzi et al., J. Phys.:Condens. Matter 21 395502 (2009);
          URL http://www.quantum-espresso.org", 
     in publications or presentations arising from this work. More details at
     http://www.quantum-espresso.org/quote

     Serial version
     Waiting for input...
     Reading input from standard input

     Current dimensions of program PWSCF are:
     Max number of different atomic species (ntypx) = 10
     Max number of k-points (npk) =  40000
     Max angular momentum in pseudopotentials (lmaxx) =  3

     G-vector sticks info
     --------------------
     sticks:   dense  smooth     PW     G-vecs:    dense   smooth      PW
     Sum         211     211     73                 2085     2085     411



     bravais-lattice index     =            2
     lattice parameter (alat)  =      10.1830  a.u.
     unit-cell volume          =     263.9777 (a.u.)^3
     number of atoms/cell      =            2
     number of atomic types    =            1
     number of electrons       =         8.00
     number of Kohn-Sham states=           10
     kinetic-energy cutoff     =      15.0000  Ry
     charge density cutoff     =      60.0000  Ry
     convergence threshold     =      1.0E-08
     mixing beta               =       0.7000
     number of iterations used =            8  plain     mixing
     Exchange-correlation      =  SLA  PZ   NOGX NOGC ( 1  1  0  0 0)

     celldm(1)=  10.183000  celldm(2)=   0.000000  celldm(3)=   0.000000
     celldm(4)=   0.000000  celldm(5)=   0.000000  celldm(6)=   0.000000

     crystal axes: (cart. coord. in units of alat)
               a(1) = (  -0.500000   0.000000   0.500000 )  
               a(2) = (   0.000000   0.500000   0.500000 )  
               a(3) = (  -0.500000   0.500000   0.000000 )  

     reciprocal axes: (cart. coord. in units 2 pi/alat)
               b(1) = ( -1.000000 -1.000000  1.000000 )  
               b(2) = (  1.000000  1.000000  1.000000 )  
               b(3) = ( -1.000000  1.000000 -1.000000 )  


     PseudoPot. # 1 for Si read from file:
     ./Si.vbc.UPF
     MD5 check sum: 4c7b77fd47b93ec473fdb880ad3d12f9
     Pseudo is Norm-conserving, Zval =  4.0
     Generated by new atomic code, or converted to UPF format
     Using radial grid of  431 points,  2 beta functions with: 
                l(1) =   0
                l(2) =   1

     atomic species   valence    mass     pseudopotential
        Si             4.00    28.08600     Si( 1.00)

     24 Sym. Ops. (no inversion) found
          (note: 24 additional sym.ops. were found but ignored
           their fractional translations are incommensurate with FFT grid)


   Cartesian axes

     site n.     atom                  positions (alat units)
         1           Si  tau(   1) = (   0.0000000   0.0000000   0.0000000  )
         2           Si  tau(   2) = (   0.2500000   0.2500000   0.2500000  )

     number of k points=     8
                       cart. coord. in units 2pi/alat
        k(    1) = (   0.0000000   0.0000000   0.0000000), wk =   0.0312500
        k(    2) = (  -0.2500000   0.2500000  -0.2500000), wk =   0.2500000
        k(    3) = (   0.5000000  -0.5000000   0.5000000), wk =   0.1250000
        k(    4) = (   0.0000000   0.5000000   0.0000000), wk =   0.1875000
        k(    5) = (   0.7500000  -0.2500000   0.7500000), wk =   0.7500000
        k(    6) = (   0.5000000   0.0000000   0.5000000), wk =   0.3750000
        k(    7) = (   0.0000000  -1.0000000   0.0000000), wk =   0.0937500
        k(    8) = (  -0.5000000  -1.0000000   0.0000000), wk =   0.1875000

     Dense  grid:     2085 G-vectors     FFT dimensions: (  18,  18,  18)

     Largest allocated arrays     est. size (Mb)     dimensions
        Kohn-Sham Wavefunctions         0.04 Mb     (     268,   10)
        NL pseudopotentials             0.03 Mb     (     268,    8)
        Each V/rho on FFT grid          0.09 Mb     (    5832)
        Each G-vector array             0.02 Mb     (    2085)
        G-vector shells                 0.00 Mb     (      54)
     Largest temporary arrays     est. size (Mb)     dimensions
        Auxiliary wavefunctions         0.16 Mb     (     268,   40)
        Each subspace H/S matrix        0.02 Mb     (      40,   40)
        Each <psi_i|beta_j> matrix      0.00 Mb     (       8,   10)
        Arrays for rho mixing           0.71 Mb     (    5832,    8)

     Initial potential from superposition of free atoms

     starting charge    7.99901, renormalised to    8.00000
     Starting wfc are    8 randomized atomic wfcs +    2 random wfc

     total cpu time spent up to now is        0.1 secs

     per-process dynamical memory:     1.9 Mb

     Self-consistent Calculation

     iteration #  1     ecut=    15.00 Ry     beta=0.70
     Davidson diagonalization with overlap
     ethr =  1.00E-02,  avg # of iterations =  5.4

     Threshold (ethr) on eigenvalues was too large:
     Diagonalizing with lowered threshold

     Davidson diagonalization with overlap
     ethr =  8.65E-04,  avg # of iterations =  2.6

     total cpu time spent up to now is        0.2 secs

     total energy              =     -15.81607082 Ry
     Harris-Foulkes estimate   =     -15.84011589 Ry
     estimated scf accuracy    <       0.06882320 Ry

     iteration #  2     ecut=    15.00 Ry     beta=0.70
     Davidson diagonalization with overlap
     ethr =  8.60E-04,  avg # of iterations =  1.4

     total cpu time spent up to now is        0.2 secs

     total energy              =     -15.82022235 Ry
     Harris-Foulkes estimate   =     -15.82046442 Ry
     estimated scf accuracy    <       0.00195401 Ry

     iteration #  3     ecut=    15.00 Ry     beta=0.70
     Davidson diagonalization with overlap
     ethr =  2.44E-05,  avg # of iterations =  2.8

     total cpu time spent up to now is        0.3 secs

     total energy              =     -15.82028223 Ry
     Harris-Foulkes estimate   =     -15.82028721 Ry
     estimated scf accuracy    <       0.00006066 Ry

     iteration #  4     ecut=    15.00 Ry     beta=0.70
     Davidson diagonalization with overlap
     ethr =  7.58E-07,  avg # of iterations =  4.1

     total cpu time spent up to now is        0.3 secs

     total energy              =     -15.82028472 Ry
     Harris-Foulkes estimate   =     -15.82028473 Ry
     estimated scf accuracy    <       0.00000005 Ry

     iteration #  5     ecut=    15.00 Ry     beta=0.70
     Davidson diagonalization with overlap
     ethr =  6.72E-10,  avg # of iterations =  4.8

     total cpu time spent up to now is        0.4 secs

     End of self-consistent calculation

          k = 0.0000 0.0000 0.0000 (   259 PWs)   bands (ev):

    -5.7277   6.3571   6.3571   6.3571   8.9137   8.9137   8.9137   9.8886
    14.1160  14.2533

          k =-0.2500 0.2500-0.2500 (   268 PWs)   bands (ev):

    -4.9248   2.3759   5.5670   5.5670   8.4258   9.8757   9.8757  13.3117
    13.6569  13.6569

          k = 0.5000-0.5000 0.5000 (   266 PWs)   bands (ev):

    -3.3334  -0.7513   5.1209   5.1209   7.9529   9.6865   9.6865  13.9166
    17.1345  17.1345

          k = 0.0000 0.5000 0.0000 (   258 PWs)   bands (ev):

    -4.6304   2.8688   4.4020   4.4020   7.4118   9.4598  12.1920  12.1920
    14.5304  15.4957

          k = 0.7500-0.2500 0.7500 (   254 PWs)   bands (ev):

    -2.9484  -0.0715   2.7083   4.0795   7.8111  10.7959  12.1756  12.3483
    16.6179  17.0896

          k = 0.5000 0.0000 0.5000 (   256 PWs)   bands (ev):

    -3.6428   0.8549   2.4645   4.9865   8.7954  11.1861  11.5197  12.5354
    12.8870  16.0662

          k = 0.0000-1.0000 0.0000 (   254 PWs)   bands (ev):

    -1.4981  -1.4981   3.4127   3.4127   6.9649   6.9649  16.5724  16.5724
    17.5762  17.5762

          k =-0.5000-1.0000 0.0000 (   264 PWs)   bands (ev):

    -1.3247  -1.3247   2.3493   2.3493  10.5893  10.5893  11.4107  11.4108
    17.1004  17.1004

     highest occupied, lowest unoccupied level (ev):     6.3571    6.9649

!    total energy              =     -15.82028487 Ry
     Harris-Foulkes estimate   =     -15.82028487 Ry
     estimated scf accuracy    <          3.7E-09 Ry

     The total energy is the sum of the following terms:

     one-electron contribution =       4.84208994 Ry
     hartree contribution      =       1.09247964 Ry
     xc contribution           =      -4.82688257 Ry
     ewald contribution        =     -16.92797188 Ry

     convergence has been achieved in   5 iterations

     Writing output data file Si.save

     init_run     :      0.04s CPU      0.04s WALL (       1 calls)
     electrons    :      0.36s CPU      0.37s WALL (       1 calls)

     Called by init_run:
     wfcinit      :      0.02s CPU      0.02s WALL (       1 calls)
     potinit      :      0.00s CPU      0.00s WALL (       1 calls)

     Called by electrons:
     c_bands      :      0.31s CPU      0.32s WALL (       6 calls)
     sum_band     :      0.04s CPU      0.05s WALL (       6 calls)
     v_of_rho     :      0.00s CPU      0.00s WALL (       6 calls)
     mix_rho      :      0.00s CPU      0.00s WALL (       6 calls)

     Called by c_bands:
     init_us_2    :      0.01s CPU      0.01s WALL (     104 calls)
     cegterg      :      0.30s CPU      0.31s WALL (      48 calls)

     Called by *egterg:
     h_psi        :      0.22s CPU      0.24s WALL (     224 calls)
     g_psi        :      0.00s CPU      0.00s WALL (     168 calls)
     cdiaghg      :      0.05s CPU      0.06s WALL (     208 calls)

     Called by h_psi:
     add_vuspsi   :      0.01s CPU      0.00s WALL (     224 calls)

     General routines
     calbec       :      0.01s CPU      0.00s WALL (     224 calls)
     fft          :      0.00s CPU      0.00s WALL (      25 calls)
     fftw         :      0.23s CPU      0.24s WALL (    3366 calls)
     davcio       :      0.00s CPU      0.00s WALL (       8 calls)


     PWSCF        :     0.46s CPU         0.48s WALL


   This run was terminated on:  14:21:36   5Oct2015            

=------------------------------------------------------------------------------=
   JOB DONE.
=------------------------------------------------------------------------------=
