
     Program PWSCF v.5.0.2 (svn rev. 9656) starts on 15Jul2015 at 16:53: 0 

     This program is part of the open-source Quantum ESPRESSO suite
     for quantum simulation of materials; please cite
         "P. Giannozzi et al., J. Phys.:Condens. Matter 21 395502 (2009);
          URL http://www.quantum-espresso.org", 
     in publications or presentations arising from this work. More details at
     http://www.quantum-espresso.org/quote.php

     Parallel version (MPI), running on     1 processors

     Current dimensions of program PWSCF are:
     Max number of different atomic species (ntypx) = 10
     Max number of k-points (npk) =  40000
     Max angular momentum in pseudopotentials (lmaxx) =  3
     Waiting for input...
     Reading input from standard input

     Atomic positions and unit cell read from directory:
     ./Fe_nscf_e70_DbGd_nb20_so.save/
     Nothing found: using input atomic positions and unit cell


     Fixed quantization axis for GGA:     0.000000    0.000000    1.000000

     Subspace diagonalization in iterative solution of the eigenvalue problem:
     a serial algorithm will be used


     G-vector sticks info
     --------------------
     sticks:   dense  smooth     PW     G-vecs:    dense   smooth      PW
     Sum         467     467    151                 6363     6363    1157

     Generating pointlists ...
     new r_m :   0.3572 (alat units)  1.9362 (a.u.) for type    1


     bravais-lattice index     =            3
     lattice parameter (alat)  =       5.4200  a.u.
     unit-cell volume          =      79.6100 (a.u.)^3
     number of atoms/cell      =            1
     number of atomic types    =            1
     number of electrons       =         8.00
     number of Kohn-Sham states=           20
     kinetic-energy cutoff     =      70.0000  Ry
     charge density cutoff     =     280.0000  Ry
     Exchange-correlation      = PBE ( 1 4 3 4 0)
     EXX-fraction              =        0.00
     Noncollinear calculation with spin-orbit


     celldm(1)=   5.420000  celldm(2)=   0.000000  celldm(3)=   0.000000
     celldm(4)=   0.000000  celldm(5)=   0.000000  celldm(6)=   0.000000

     crystal axes: (cart. coord. in units of alat)
               a(1) = (   0.500000   0.500000   0.500000 )  
               a(2) = (  -0.500000   0.500000   0.500000 )  
               a(3) = (  -0.500000  -0.500000   0.500000 )  

     reciprocal axes: (cart. coord. in units 2 pi/alat)
               b(1) = (  1.000000  0.000000  1.000000 )  
               b(2) = ( -1.000000  1.000000  0.000000 )  
               b(3) = (  0.000000 -1.000000  1.000000 )  


     PseudoPot. # 1 for Fe read from file:
     ./Fe.rel-pbe-n-nc.UPF
     MD5 check sum: 94258d60e67ccf79570366bad73e55f4
     Pseudo is Norm-conserving + core correction, Zval =  8.0
     Generated using "atomic" code by A. Dal Corso  v.5.0.2 svn rev. 10042M
     Using radial grid of 1191 points,  4 beta functions with: 
                l(1) =   1
                l(2) =   1
                l(3) =   2
                l(4) =   2

     atomic species   valence    mass     pseudopotential
        Fe             8.00    55.84500     Fe( 1.00)

     16 Sym. Ops., with inversion, found


                                    s                        frac. trans.

      isym =  1     identity                                     

 Time Reversal            0
 cryst.   s( 1) = (     1          0          0      )
                  (     0          1          0      )
                  (     0          0          1      )

 cart.    s( 1) = (  1.0000000  0.0000000  0.0000000 )
                  (  0.0000000  1.0000000  0.0000000 )
                  (  0.0000000  0.0000000  1.0000000 )


      isym =  2     180 deg rotation - cart. axis [0,0,1]        

 Time Reversal            0
 cryst.   s( 2) = (     0          0          1      )
                  (     1         -1          1      )
                  (     1          0          0      )

 cart.    s( 2) = ( -1.0000000  0.0000000  0.0000000 )
                  (  0.0000000 -1.0000000  0.0000000 )
                  (  0.0000000  0.0000000  1.0000000 )


      isym =  3     180 deg rotation - cart. axis [0,1,0]        

 Time Reversal            1
 cryst.   s( 3) = (    -1          1         -1      )
                  (     0          0         -1      )
                  (     0         -1          0      )

 cart.    s( 3) = ( -1.0000000  0.0000000  0.0000000 )
                  (  0.0000000  1.0000000  0.0000000 )
                  (  0.0000000  0.0000000 -1.0000000 )


      isym =  4     180 deg rotation - cart. axis [1,0,0]        

 Time Reversal            1
 cryst.   s( 4) = (     0         -1          0      )
                  (    -1          0          0      )
                  (    -1          1         -1      )

 cart.    s( 4) = (  1.0000000  0.0000000  0.0000000 )
                  (  0.0000000 -1.0000000  0.0000000 )
                  (  0.0000000  0.0000000 -1.0000000 )


      isym =  5     180 deg rotation - cart. axis [1,1,0]        

 Time Reversal            1
 cryst.   s( 5) = (     0          0         -1      )
                  (     0         -1          0      )
                  (    -1          0          0      )

 cart.    s( 5) = (  0.0000000  1.0000000  0.0000000 )
                  (  1.0000000  0.0000000  0.0000000 )
                  (  0.0000000  0.0000000 -1.0000000 )


      isym =  6     180 deg rotation - cart. axis [1,-1,0]       

 Time Reversal            1
 cryst.   s( 6) = (    -1          0          0      )
                  (    -1          1         -1      )
                  (     0          0         -1      )

 cart.    s( 6) = (  0.0000000 -1.0000000  0.0000000 )
                  ( -1.0000000  0.0000000  0.0000000 )
                  (  0.0000000  0.0000000 -1.0000000 )


      isym =  7      90 deg rotation - cart. axis [0,0,-1]       

 Time Reversal            0
 cryst.   s( 7) = (     1         -1          1      )
                  (     1          0          0      )
                  (     0          1          0      )

 cart.    s( 7) = (  0.0000000  1.0000000  0.0000000 )
                  ( -1.0000000  0.0000000  0.0000000 )
                  (  0.0000000  0.0000000  1.0000000 )


      isym =  8      90 deg rotation - cart. axis [0,0,1]        

 Time Reversal            0
 cryst.   s( 8) = (     0          1          0      )
                  (     0          0          1      )
                  (     1         -1          1      )

 cart.    s( 8) = (  0.0000000 -1.0000000  0.0000000 )
                  (  1.0000000  0.0000000  0.0000000 )
                  (  0.0000000  0.0000000  1.0000000 )


      isym =  9     inversion                                    

 Time Reversal            0
 cryst.   s( 9) = (    -1          0          0      )
                  (     0         -1          0      )
                  (     0          0         -1      )

 cart.    s( 9) = ( -1.0000000  0.0000000  0.0000000 )
                  (  0.0000000 -1.0000000  0.0000000 )
                  (  0.0000000  0.0000000 -1.0000000 )


      isym = 10     inv. 180 deg rotation - cart. axis [0,0,1]   

 Time Reversal            0
 cryst.   s(10) = (     0          0         -1      )
                  (    -1          1         -1      )
                  (    -1          0          0      )

 cart.    s(10) = (  1.0000000  0.0000000  0.0000000 )
                  (  0.0000000  1.0000000  0.0000000 )
                  (  0.0000000  0.0000000 -1.0000000 )


      isym = 11     inv. 180 deg rotation - cart. axis [0,1,0]   

 Time Reversal            1
 cryst.   s(11) = (     1         -1          1      )
                  (     0          0          1      )
                  (     0          1          0      )

 cart.    s(11) = (  1.0000000  0.0000000  0.0000000 )
                  (  0.0000000 -1.0000000  0.0000000 )
                  (  0.0000000  0.0000000  1.0000000 )


      isym = 12     inv. 180 deg rotation - cart. axis [1,0,0]   

 Time Reversal            1
 cryst.   s(12) = (     0          1          0      )
                  (     1          0          0      )
                  (     1         -1          1      )

 cart.    s(12) = ( -1.0000000  0.0000000  0.0000000 )
                  (  0.0000000  1.0000000  0.0000000 )
                  (  0.0000000  0.0000000  1.0000000 )


      isym = 13     inv. 180 deg rotation - cart. axis [1,1,0]   

 Time Reversal            1
 cryst.   s(13) = (     0          0          1      )
                  (     0          1          0      )
                  (     1          0          0      )

 cart.    s(13) = (  0.0000000 -1.0000000  0.0000000 )
                  ( -1.0000000  0.0000000  0.0000000 )
                  (  0.0000000  0.0000000  1.0000000 )


      isym = 14     inv. 180 deg rotation - cart. axis [1,-1,0]  

 Time Reversal            1
 cryst.   s(14) = (     1          0          0      )
                  (     1         -1          1      )
                  (     0          0          1      )

 cart.    s(14) = (  0.0000000  1.0000000  0.0000000 )
                  (  1.0000000  0.0000000  0.0000000 )
                  (  0.0000000  0.0000000  1.0000000 )


      isym = 15     inv.  90 deg rotation - cart. axis [0,0,-1]  

 Time Reversal            0
 cryst.   s(15) = (    -1          1         -1      )
                  (    -1          0          0      )
                  (     0         -1          0      )

 cart.    s(15) = (  0.0000000 -1.0000000  0.0000000 )
                  (  1.0000000  0.0000000  0.0000000 )
                  (  0.0000000  0.0000000 -1.0000000 )


      isym = 16     inv.  90 deg rotation - cart. axis [0,0,1]   

 Time Reversal            0
 cryst.   s(16) = (     0         -1          0      )
                  (     0          0         -1      )
                  (    -1          1         -1      )

 cart.    s(16) = (  0.0000000  1.0000000  0.0000000 )
                  ( -1.0000000  0.0000000  0.0000000 )
                  (  0.0000000  0.0000000 -1.0000000 )


     the magnetic double point group is D_4h(4/mmm) [C_4h (4/m) ]
     using the double point group C_4h (4/m) 
     there are 16 classes and  8 irreducible representations
     the character table:

       E     -E    C4    -C4   C4^2  -C4^2 C4^3  -C4^3 i     -i    S4^3  -S4^3
                                                                              
G_5+   1.00 -1.00  0.71 -0.71  0.00  0.00  0.71 -0.71  1.00 -1.00  0.71 -0.71
G_6+   1.00 -1.00  0.71 -0.71  0.00  0.00  0.71 -0.71  1.00 -1.00  0.71 -0.71
G_7+   1.00 -1.00 -0.71  0.71  0.00  0.00 -0.71  0.71  1.00 -1.00 -0.71  0.71
G_8+   1.00 -1.00 -0.71  0.71  0.00  0.00 -0.71  0.71  1.00 -1.00 -0.71  0.71
G_5-   1.00 -1.00  0.71 -0.71  0.00  0.00  0.71 -0.71 -1.00  1.00 -0.71  0.71
G_6-   1.00 -1.00  0.71 -0.71  0.00  0.00  0.71 -0.71 -1.00  1.00 -0.71  0.71
G_7-   1.00 -1.00 -0.71  0.71  0.00  0.00 -0.71  0.71 -1.00  1.00  0.71 -0.71
G_8-   1.00 -1.00 -0.71  0.71  0.00  0.00 -0.71  0.71 -1.00  1.00  0.71 -0.71

       s_h   -s_h  S4    -S4  
                              
G_5+   0.00  0.00  0.71 -0.71
G_6+   0.00  0.00  0.71 -0.71
G_7+   0.00  0.00 -0.71  0.71
G_8+   0.00  0.00 -0.71  0.71
G_5-   0.00  0.00 -0.71  0.71
G_6-   0.00  0.00 -0.71  0.71
G_7-   0.00  0.00  0.71 -0.71
G_8-   0.00  0.00  0.71 -0.71

     imaginary part

       E     -E    C4    -C4   C4^2  -C4^2 C4^3  -C4^3 i     -i    S4^3  -S4^3
                                                                              
G_5+   0.00  0.00  0.71 -0.71  1.00 -1.00 -0.71  0.71  0.00  0.00  0.71 -0.71
G_6+   0.00  0.00 -0.71  0.71 -1.00  1.00  0.71 -0.71  0.00  0.00 -0.71  0.71
G_7+   0.00  0.00 -0.71  0.71  1.00 -1.00  0.71 -0.71  0.00  0.00 -0.71  0.71
G_8+   0.00  0.00  0.71 -0.71 -1.00  1.00 -0.71  0.71  0.00  0.00  0.71 -0.71
G_5-   0.00  0.00  0.71 -0.71  1.00 -1.00 -0.71  0.71  0.00  0.00 -0.71  0.71
G_6-   0.00  0.00 -0.71  0.71 -1.00  1.00  0.71 -0.71  0.00  0.00  0.71 -0.71
G_7-   0.00  0.00 -0.71  0.71  1.00 -1.00  0.71 -0.71  0.00  0.00  0.71 -0.71
G_8-   0.00  0.00  0.71 -0.71 -1.00  1.00 -0.71  0.71  0.00  0.00 -0.71  0.71

       s_h   -s_h  S4    -S4  
                              
G_5+   1.00 -1.00 -0.71  0.71
G_6+  -1.00  1.00  0.71 -0.71
G_7+   1.00 -1.00  0.71 -0.71
G_8+  -1.00  1.00 -0.71  0.71
G_5-  -1.00  1.00  0.71 -0.71
G_6-   1.00 -1.00 -0.71  0.71
G_7-  -1.00  1.00 -0.71  0.71
G_8-   1.00 -1.00  0.71 -0.71

     the symmetry operations in each class:
     E             1
     C4^2          2
     C4^3          3
     C4            4
     i             5
     s_h           6
     S4            7
     S4^3          8
     -E           -1
     -C4^2        -2
     -C4^3        -3
     -C4          -4
     -i           -5
     -s_h         -6
     -S4          -7
     -S4^3        -8

   Cartesian axes

     site n.     atom                  positions (alat units)
         1           Fe  tau(   1) = (   0.0000000   0.0000000   0.0000000  )

   Crystallographic axes

     site n.     atom                  positions (cryst. coord.)
         1           Fe  tau(   1) = (  0.0000000  0.0000000  0.0000000  )

     number of k points=  4520  gaussian smearing, width (Ry)=  0.0250
                       cart. coord. in units 2pi/alat
        k(    1) = (   0.0000000   0.0000000   0.0250000), wk =   0.0000312
        k(    2) = (   0.0000000  -0.0250000   0.0500000), wk =   0.0001250
        k(    3) = (   0.0000000  -0.0500000   0.0750000), wk =   0.0001250
        k(    4) = (   0.0000000  -0.0750000   0.1000000), wk =   0.0001250
        k(    5) = (   0.0000000  -0.1000000   0.1250000), wk =   0.0001250
        k(    6) = (   0.0000000  -0.1250000   0.1500000), wk =   0.0001250
        k(    7) = (   0.0000000  -0.1500000   0.1750000), wk =   0.0001250
        k(    8) = (   0.0000000  -0.1750000   0.2000000), wk =   0.0001250
        k(    9) = (   0.0000000  -0.2000000   0.2250000), wk =   0.0001250
        k(   10) = (   0.0000000  -0.2250000   0.2500000), wk =   0.0001250
        k(   11) = (   0.0000000  -0.2500000   0.2750000), wk =   0.0001250
        k(   12) = (   0.0000000  -0.2750000   0.3000000), wk =   0.0001250
        k(   13) = (   0.0000000  -0.3000000   0.3250000), wk =   0.0001250
        k(   14) = (   0.0000000  -0.3250000   0.3500000), wk =   0.0001250
        k(   15) = (   0.0000000  -0.3500000   0.3750000), wk =   0.0001250
        k(   16) = (   0.0000000  -0.3750000   0.4000000), wk =   0.0001250
        k(   17) = (   0.0000000  -0.4000000   0.4250000), wk =   0.0001250
        k(   18) = (   0.0000000  -0.4250000   0.4500000), wk =   0.0001250
        k(   19) = (   0.0000000  -0.4500000   0.4750000), wk =   0.0001250
        k(   20) = (   0.0000000  -0.4750000   0.5000000), wk =   0.0001250
        k(   21) = (  -0.0250000   0.0250000   0.0250000), wk =   0.0001250
        k(   22) = (  -0.0250000  -0.0250000   0.0750000), wk =   0.0001250
        k(   23) = (  -0.0250000  -0.0500000   0.1000000), wk =   0.0002500
        k(   24) = (  -0.0250000  -0.0750000   0.1250000), wk =   0.0002500
        k(   25) = (  -0.0250000  -0.1000000   0.1500000), wk =   0.0002500
        k(   26) = (  -0.0250000  -0.1250000   0.1750000), wk =   0.0002500
        k(   27) = (  -0.0250000  -0.1500000   0.2000000), wk =   0.0002500
        k(   28) = (  -0.0250000  -0.1750000   0.2250000), wk =   0.0002500
        k(   29) = (  -0.0250000  -0.2000000   0.2500000), wk =   0.0002500
        k(   30) = (  -0.0250000  -0.2250000   0.2750000), wk =   0.0002500
        k(   31) = (  -0.0250000  -0.2500000   0.3000000), wk =   0.0002500
        k(   32) = (  -0.0250000  -0.2750000   0.3250000), wk =   0.0002500
        k(   33) = (  -0.0250000  -0.3000000   0.3500000), wk =   0.0002500
        k(   34) = (  -0.0250000  -0.3250000   0.3750000), wk =   0.0002500
        k(   35) = (  -0.0250000  -0.3500000   0.4000000), wk =   0.0002500
        k(   36) = (  -0.0250000  -0.3750000   0.4250000), wk =   0.0002500
        k(   37) = (  -0.0250000  -0.4000000   0.4500000), wk =   0.0002500
        k(   38) = (  -0.0250000  -0.4250000   0.4750000), wk =   0.0002500
        k(   39) = (  -0.0250000  -0.4500000   0.5000000), wk =   0.0002500
        k(   40) = (  -0.0250000   0.5250000  -0.4750000), wk =   0.0002500
        k(   41) = (  -0.0500000   0.0500000   0.0250000), wk =   0.0001250
        k(   42) = (  -0.0500000  -0.0500000   0.1250000), wk =   0.0001250
        k(   43) = (  -0.0500000  -0.0750000   0.1500000), wk =   0.0002500
        k(   44) = (  -0.0500000  -0.1000000   0.1750000), wk =   0.0002500
        k(   45) = (  -0.0500000  -0.1250000   0.2000000), wk =   0.0002500
        k(   46) = (  -0.0500000  -0.1500000   0.2250000), wk =   0.0002500
        k(   47) = (  -0.0500000  -0.1750000   0.2500000), wk =   0.0002500
        k(   48) = (  -0.0500000  -0.2000000   0.2750000), wk =   0.0002500
        k(   49) = (  -0.0500000  -0.2250000   0.3000000), wk =   0.0002500
        k(   50) = (  -0.0500000  -0.2500000   0.3250000), wk =   0.0002500
        k(   51) = (  -0.0500000  -0.2750000   0.3500000), wk =   0.0002500
        k(   52) = (  -0.0500000  -0.3000000   0.3750000), wk =   0.0002500
        k(   53) = (  -0.0500000  -0.3250000   0.4000000), wk =   0.0002500
        k(   54) = (  -0.0500000  -0.3500000   0.4250000), wk =   0.0002500
        k(   55) = (  -0.0500000  -0.3750000   0.4500000), wk =   0.0002500
        k(   56) = (  -0.0500000  -0.4000000   0.4750000), wk =   0.0002500
        k(   57) = (  -0.0500000  -0.4250000   0.5000000), wk =   0.0002500
        k(   58) = (  -0.0500000   0.5500000  -0.4750000), wk =   0.0002500
        k(   59) = (  -0.0750000   0.0750000   0.0250000), wk =   0.0001250
        k(   60) = (  -0.0750000   0.0500000   0.0500000), wk =   0.0002500
        k(   61) = (  -0.0750000  -0.0750000   0.1750000), wk =   0.0001250
        k(   62) = (  -0.0750000  -0.1000000   0.2000000), wk =   0.0002500
        k(   63) = (  -0.0750000  -0.1250000   0.2250000), wk =   0.0002500
        k(   64) = (  -0.0750000  -0.1500000   0.2500000), wk =   0.0002500
        k(   65) = (  -0.0750000  -0.1750000   0.2750000), wk =   0.0002500
        k(   66) = (  -0.0750000  -0.2000000   0.3000000), wk =   0.0002500
        k(   67) = (  -0.0750000  -0.2250000   0.3250000), wk =   0.0002500
        k(   68) = (  -0.0750000  -0.2500000   0.3500000), wk =   0.0002500
        k(   69) = (  -0.0750000  -0.2750000   0.3750000), wk =   0.0002500
        k(   70) = (  -0.0750000  -0.3000000   0.4000000), wk =   0.0002500
        k(   71) = (  -0.0750000  -0.3250000   0.4250000), wk =   0.0002500
        k(   72) = (  -0.0750000  -0.3500000   0.4500000), wk =   0.0002500
        k(   73) = (  -0.0750000  -0.3750000   0.4750000), wk =   0.0002500
        k(   74) = (  -0.0750000  -0.4000000   0.5000000), wk =   0.0002500
        k(   75) = (  -0.0750000   0.5750000  -0.4750000), wk =   0.0002500
        k(   76) = (  -0.0750000   0.5500000  -0.4500000), wk =   0.0002500
        k(   77) = (  -0.1000000   0.1000000   0.0250000), wk =   0.0001250
        k(   78) = (  -0.1000000   0.0750000   0.0500000), wk =   0.0002500
        k(   79) = (  -0.1000000  -0.1000000   0.2250000), wk =   0.0001250
        k(   80) = (  -0.1000000  -0.1250000   0.2500000), wk =   0.0002500
        k(   81) = (  -0.1000000  -0.1500000   0.2750000), wk =   0.0002500
        k(   82) = (  -0.1000000  -0.1750000   0.3000000), wk =   0.0002500
        k(   83) = (  -0.1000000  -0.2000000   0.3250000), wk =   0.0002500
        k(   84) = (  -0.1000000  -0.2250000   0.3500000), wk =   0.0002500
        k(   85) = (  -0.1000000  -0.2500000   0.3750000), wk =   0.0002500
        k(   86) = (  -0.1000000  -0.2750000   0.4000000), wk =   0.0002500
        k(   87) = (  -0.1000000  -0.3000000   0.4250000), wk =   0.0002500
        k(   88) = (  -0.1000000  -0.3250000   0.4500000), wk =   0.0002500
        k(   89) = (  -0.1000000  -0.3500000   0.4750000), wk =   0.0002500
        k(   90) = (  -0.1000000  -0.3750000   0.5000000), wk =   0.0002500
        k(   91) = (  -0.1000000   0.6000000  -0.4750000), wk =   0.0002500
        k(   92) = (  -0.1000000   0.5750000  -0.4500000), wk =   0.0002500
        k(   93) = (  -0.1250000   0.1250000   0.0250000), wk =   0.0001250
        k(   94) = (  -0.1250000   0.1000000   0.0500000), wk =   0.0002500
        k(   95) = (  -0.1250000   0.0750000   0.0750000), wk =   0.0002500
        k(   96) = (  -0.1250000  -0.1250000   0.2750000), wk =   0.0001250
        k(   97) = (  -0.1250000  -0.1500000   0.3000000), wk =   0.0002500
        k(   98) = (  -0.1250000  -0.1750000   0.3250000), wk =   0.0002500
        k(   99) = (  -0.1250000  -0.2000000   0.3500000), wk =   0.0002500
        k(  100) = (  -0.1250000  -0.2250000   0.3750000), wk =   0.0002500
        k(  101) = (  -0.1250000  -0.2500000   0.4000000), wk =   0.0002500
        k(  102) = (  -0.1250000  -0.2750000   0.4250000), wk =   0.0002500
        k(  103) = (  -0.1250000  -0.3000000   0.4500000), wk =   0.0002500
        k(  104) = (  -0.1250000  -0.3250000   0.4750000), wk =   0.0002500
        k(  105) = (  -0.1250000  -0.3500000   0.5000000), wk =   0.0002500
        k(  106) = (  -0.1250000   0.6250000  -0.4750000), wk =   0.0002500
        k(  107) = (  -0.1250000   0.6000000  -0.4500000), wk =   0.0002500
        k(  108) = (  -0.1250000   0.5750000  -0.4250000), wk =   0.0002500
        k(  109) = (  -0.1500000   0.1500000   0.0250000), wk =   0.0001250
        k(  110) = (  -0.1500000   0.1250000   0.0500000), wk =   0.0002500
        k(  111) = (  -0.1500000   0.1000000   0.0750000), wk =   0.0002500
        k(  112) = (  -0.1500000  -0.1500000   0.3250000), wk =   0.0001250
        k(  113) = (  -0.1500000  -0.1750000   0.3500000), wk =   0.0002500
        k(  114) = (  -0.1500000  -0.2000000   0.3750000), wk =   0.0002500
        k(  115) = (  -0.1500000  -0.2250000   0.4000000), wk =   0.0002500
        k(  116) = (  -0.1500000  -0.2500000   0.4250000), wk =   0.0002500
        k(  117) = (  -0.1500000  -0.2750000   0.4500000), wk =   0.0002500
        k(  118) = (  -0.1500000  -0.3000000   0.4750000), wk =   0.0002500
        k(  119) = (  -0.1500000  -0.3250000   0.5000000), wk =   0.0002500
        k(  120) = (  -0.1500000   0.6500000  -0.4750000), wk =   0.0002500
        k(  121) = (  -0.1500000   0.6250000  -0.4500000), wk =   0.0002500
        k(  122) = (  -0.1500000   0.6000000  -0.4250000), wk =   0.0002500
        k(  123) = (  -0.1750000   0.1750000   0.0250000), wk =   0.0001250
        k(  124) = (  -0.1750000   0.1500000   0.0500000), wk =   0.0002500
        k(  125) = (  -0.1750000   0.1250000   0.0750000), wk =   0.0002500
        k(  126) = (  -0.1750000   0.1000000   0.1000000), wk =   0.0002500
        k(  127) = (  -0.1750000  -0.1750000   0.3750000), wk =   0.0001250
        k(  128) = (  -0.1750000  -0.2000000   0.4000000), wk =   0.0002500
        k(  129) = (  -0.1750000  -0.2250000   0.4250000), wk =   0.0002500
        k(  130) = (  -0.1750000  -0.2500000   0.4500000), wk =   0.0002500
        k(  131) = (  -0.1750000  -0.2750000   0.4750000), wk =   0.0002500
        k(  132) = (  -0.1750000  -0.3000000   0.5000000), wk =   0.0002500
        k(  133) = (  -0.1750000   0.6750000  -0.4750000), wk =   0.0002500
        k(  134) = (  -0.1750000   0.6500000  -0.4500000), wk =   0.0002500
        k(  135) = (  -0.1750000   0.6250000  -0.4250000), wk =   0.0002500
        k(  136) = (  -0.1750000   0.6000000  -0.4000000), wk =   0.0002500
        k(  137) = (  -0.2000000   0.2000000   0.0250000), wk =   0.0001250
        k(  138) = (  -0.2000000   0.1750000   0.0500000), wk =   0.0002500
        k(  139) = (  -0.2000000   0.1500000   0.0750000), wk =   0.0002500
        k(  140) = (  -0.2000000   0.1250000   0.1000000), wk =   0.0002500
        k(  141) = (  -0.2000000  -0.2000000   0.4250000), wk =   0.0001250
        k(  142) = (  -0.2000000  -0.2250000   0.4500000), wk =   0.0002500
        k(  143) = (  -0.2000000  -0.2500000   0.4750000), wk =   0.0002500
        k(  144) = (  -0.2000000  -0.2750000   0.5000000), wk =   0.0002500
        k(  145) = (  -0.2000000   0.7000000  -0.4750000), wk =   0.0002500
        k(  146) = (  -0.2000000   0.6750000  -0.4500000), wk =   0.0002500
        k(  147) = (  -0.2000000   0.6500000  -0.4250000), wk =   0.0002500
        k(  148) = (  -0.2000000   0.6250000  -0.4000000), wk =   0.0002500
        k(  149) = (  -0.2250000   0.2250000   0.0250000), wk =   0.0001250
        k(  150) = (  -0.2250000   0.2000000   0.0500000), wk =   0.0002500
        k(  151) = (  -0.2250000   0.1750000   0.0750000), wk =   0.0002500
        k(  152) = (  -0.2250000   0.1500000   0.1000000), wk =   0.0002500
        k(  153) = (  -0.2250000   0.1250000   0.1250000), wk =   0.0002500
        k(  154) = (  -0.2250000  -0.2250000   0.4750000), wk =   0.0001250
        k(  155) = (  -0.2250000  -0.2500000   0.5000000), wk =   0.0002500
        k(  156) = (  -0.2250000   0.7250000  -0.4750000), wk =   0.0002500
        k(  157) = (  -0.2250000   0.7000000  -0.4500000), wk =   0.0002500
        k(  158) = (  -0.2250000   0.6750000  -0.4250000), wk =   0.0002500
        k(  159) = (  -0.2250000   0.6500000  -0.4000000), wk =   0.0002500
        k(  160) = (  -0.2250000   0.6250000  -0.3750000), wk =   0.0002500
        k(  161) = (  -0.2500000   0.2500000   0.0250000), wk =   0.0001250
        k(  162) = (  -0.2500000   0.2250000   0.0500000), wk =   0.0002500
        k(  163) = (  -0.2500000   0.2000000   0.0750000), wk =   0.0002500
        k(  164) = (  -0.2500000   0.1750000   0.1000000), wk =   0.0002500
        k(  165) = (  -0.2500000   0.1500000   0.1250000), wk =   0.0002500
        k(  166) = (  -0.2500000   0.7500000  -0.4750000), wk =   0.0001250
        k(  167) = (  -0.2500000   0.7250000  -0.4500000), wk =   0.0002500
        k(  168) = (  -0.2500000   0.7000000  -0.4250000), wk =   0.0002500
        k(  169) = (  -0.2500000   0.6750000  -0.4000000), wk =   0.0002500
        k(  170) = (  -0.2500000   0.6500000  -0.3750000), wk =   0.0002500
        k(  171) = (  -0.2750000   0.2750000   0.0250000), wk =   0.0001250
        k(  172) = (  -0.2750000   0.2500000   0.0500000), wk =   0.0002500
        k(  173) = (  -0.2750000   0.2250000   0.0750000), wk =   0.0002500
        k(  174) = (  -0.2750000   0.2000000   0.1000000), wk =   0.0002500
        k(  175) = (  -0.2750000   0.1750000   0.1250000), wk =   0.0002500
        k(  176) = (  -0.2750000   0.1500000   0.1500000), wk =   0.0002500
        k(  177) = (  -0.2750000   0.7250000  -0.4250000), wk =   0.0001250
        k(  178) = (  -0.2750000   0.7000000  -0.4000000), wk =   0.0002500
        k(  179) = (  -0.2750000   0.6750000  -0.3750000), wk =   0.0002500
        k(  180) = (  -0.2750000   0.6500000  -0.3500000), wk =   0.0002500
        k(  181) = (  -0.3000000   0.3000000   0.0250000), wk =   0.0001250
        k(  182) = (  -0.3000000   0.2750000   0.0500000), wk =   0.0002500
        k(  183) = (  -0.3000000   0.2500000   0.0750000), wk =   0.0002500
        k(  184) = (  -0.3000000   0.2250000   0.1000000), wk =   0.0002500
        k(  185) = (  -0.3000000   0.2000000   0.1250000), wk =   0.0002500
        k(  186) = (  -0.3000000   0.1750000   0.1500000), wk =   0.0002500
        k(  187) = (  -0.3000000   0.7000000  -0.3750000), wk =   0.0001250
        k(  188) = (  -0.3000000   0.6750000  -0.3500000), wk =   0.0002500
        k(  189) = (  -0.3250000   0.3250000   0.0250000), wk =   0.0001250
        k(  190) = (  -0.3250000   0.3000000   0.0500000), wk =   0.0002500
        k(  191) = (  -0.3250000   0.2750000   0.0750000), wk =   0.0002500
        k(  192) = (  -0.3250000   0.2500000   0.1000000), wk =   0.0002500
        k(  193) = (  -0.3250000   0.2250000   0.1250000), wk =   0.0002500
        k(  194) = (  -0.3250000   0.2000000   0.1500000), wk =   0.0002500
        k(  195) = (  -0.3250000   0.1750000   0.1750000), wk =   0.0002500
        k(  196) = (  -0.3250000   0.6750000  -0.3250000), wk =   0.0001250
        k(  197) = (  -0.3500000   0.3500000   0.0250000), wk =   0.0001250
        k(  198) = (  -0.3500000   0.3250000   0.0500000), wk =   0.0002500
        k(  199) = (  -0.3500000   0.3000000   0.0750000), wk =   0.0002500
        k(  200) = (  -0.3500000   0.2750000   0.1000000), wk =   0.0002500
        k(  201) = (  -0.3500000   0.2500000   0.1250000), wk =   0.0002500
        k(  202) = (  -0.3500000   0.2250000   0.1500000), wk =   0.0002500
        k(  203) = (  -0.3500000   0.2000000   0.1750000), wk =   0.0002500
        k(  204) = (  -0.3750000   0.3750000   0.0250000), wk =   0.0001250
        k(  205) = (  -0.3750000   0.3500000   0.0500000), wk =   0.0002500
        k(  206) = (  -0.3750000   0.3250000   0.0750000), wk =   0.0002500
        k(  207) = (  -0.3750000   0.3000000   0.1000000), wk =   0.0002500
        k(  208) = (  -0.3750000   0.2750000   0.1250000), wk =   0.0002500
        k(  209) = (  -0.3750000   0.2500000   0.1500000), wk =   0.0002500
        k(  210) = (  -0.3750000   0.2250000   0.1750000), wk =   0.0002500
        k(  211) = (  -0.3750000   0.2000000   0.2000000), wk =   0.0002500
        k(  212) = (  -0.4000000   0.4000000   0.0250000), wk =   0.0001250
        k(  213) = (  -0.4000000   0.3750000   0.0500000), wk =   0.0002500
        k(  214) = (  -0.4000000   0.3500000   0.0750000), wk =   0.0002500
        k(  215) = (  -0.4000000   0.3250000   0.1000000), wk =   0.0002500
        k(  216) = (  -0.4000000   0.3000000   0.1250000), wk =   0.0002500
        k(  217) = (  -0.4000000   0.2750000   0.1500000), wk =   0.0002500
        k(  218) = (  -0.4000000   0.2500000   0.1750000), wk =   0.0002500
        k(  219) = (  -0.4000000   0.2250000   0.2000000), wk =   0.0002500
        k(  220) = (  -0.4250000   0.4250000   0.0250000), wk =   0.0001250
        k(  221) = (  -0.4250000   0.4000000   0.0500000), wk =   0.0002500
        k(  222) = (  -0.4250000   0.3750000   0.0750000), wk =   0.0002500
        k(  223) = (  -0.4250000   0.3500000   0.1000000), wk =   0.0002500
        k(  224) = (  -0.4250000   0.3250000   0.1250000), wk =   0.0002500
        k(  225) = (  -0.4250000   0.3000000   0.1500000), wk =   0.0002500
        k(  226) = (  -0.4250000   0.2750000   0.1750000), wk =   0.0002500
        k(  227) = (  -0.4250000   0.2500000   0.2000000), wk =   0.0002500
        k(  228) = (  -0.4250000   0.2250000   0.2250000), wk =   0.0002500
        k(  229) = (  -0.4500000   0.4500000   0.0250000), wk =   0.0001250
        k(  230) = (  -0.4500000   0.4250000   0.0500000), wk =   0.0002500
        k(  231) = (  -0.4500000   0.4000000   0.0750000), wk =   0.0002500
        k(  232) = (  -0.4500000   0.3750000   0.1000000), wk =   0.0002500
        k(  233) = (  -0.4500000   0.3500000   0.1250000), wk =   0.0002500
        k(  234) = (  -0.4500000   0.3250000   0.1500000), wk =   0.0002500
        k(  235) = (  -0.4500000   0.3000000   0.1750000), wk =   0.0002500
        k(  236) = (  -0.4500000   0.2750000   0.2000000), wk =   0.0002500
        k(  237) = (  -0.4500000   0.2500000   0.2250000), wk =   0.0002500
        k(  238) = (  -0.4750000   0.4750000   0.0250000), wk =   0.0001250
        k(  239) = (  -0.4750000   0.4500000   0.0500000), wk =   0.0002500
        k(  240) = (  -0.4750000   0.4250000   0.0750000), wk =   0.0002500
        k(  241) = (  -0.4750000   0.4000000   0.1000000), wk =   0.0002500
        k(  242) = (  -0.4750000   0.3750000   0.1250000), wk =   0.0002500
        k(  243) = (  -0.4750000   0.3500000   0.1500000), wk =   0.0002500
        k(  244) = (  -0.4750000   0.3250000   0.1750000), wk =   0.0002500
        k(  245) = (  -0.4750000   0.3000000   0.2000000), wk =   0.0002500
        k(  246) = (  -0.4750000   0.2750000   0.2250000), wk =   0.0002500
        k(  247) = (  -0.4750000   0.2500000   0.2500000), wk =   0.0002500
        k(  248) = (   0.5000000  -0.5000000   0.0250000), wk =   0.0000625
        k(  249) = (   0.5000000  -0.5250000   0.0500000), wk =   0.0002500
        k(  250) = (   0.5000000  -0.5500000   0.0750000), wk =   0.0002500
        k(  251) = (   0.5000000  -0.5750000   0.1000000), wk =   0.0002500
        k(  252) = (   0.5000000  -0.6000000   0.1250000), wk =   0.0002500
        k(  253) = (   0.5000000  -0.6250000   0.1500000), wk =   0.0002500
        k(  254) = (   0.5000000  -0.6500000   0.1750000), wk =   0.0002500
        k(  255) = (   0.5000000  -0.6750000   0.2000000), wk =   0.0002500
        k(  256) = (   0.5000000  -0.7000000   0.2250000), wk =   0.0002500
        k(  257) = (   0.5000000  -0.7250000   0.2500000), wk =   0.0002500
        k(  258) = (   0.4750000  -0.5250000   0.0750000), wk =   0.0001250
        k(  259) = (   0.4750000  -0.5500000   0.1000000), wk =   0.0002500
        k(  260) = (   0.4750000  -0.5750000   0.1250000), wk =   0.0002500
        k(  261) = (   0.4750000  -0.6000000   0.1500000), wk =   0.0002500
        k(  262) = (   0.4750000  -0.6250000   0.1750000), wk =   0.0002500
        k(  263) = (   0.4750000  -0.6500000   0.2000000), wk =   0.0002500
        k(  264) = (   0.4750000  -0.6750000   0.2250000), wk =   0.0002500
        k(  265) = (   0.4750000  -0.7000000   0.2500000), wk =   0.0002500
        k(  266) = (   0.4750000  -0.7250000   0.2750000), wk =   0.0002500
        k(  267) = (   0.4500000  -0.5500000   0.1250000), wk =   0.0001250
        k(  268) = (   0.4500000  -0.5750000   0.1500000), wk =   0.0002500
        k(  269) = (   0.4500000  -0.6000000   0.1750000), wk =   0.0002500
        k(  270) = (   0.4500000  -0.6250000   0.2000000), wk =   0.0002500
        k(  271) = (   0.4500000  -0.6500000   0.2250000), wk =   0.0002500
        k(  272) = (   0.4500000  -0.6750000   0.2500000), wk =   0.0002500
        k(  273) = (   0.4500000  -0.7000000   0.2750000), wk =   0.0002500
        k(  274) = (   0.4250000  -0.5750000   0.1750000), wk =   0.0001250
        k(  275) = (   0.4250000  -0.6000000   0.2000000), wk =   0.0002500
        k(  276) = (   0.4250000  -0.6250000   0.2250000), wk =   0.0002500
        k(  277) = (   0.4250000  -0.6500000   0.2500000), wk =   0.0002500
        k(  278) = (   0.4250000  -0.6750000   0.2750000), wk =   0.0002500
        k(  279) = (   0.4250000  -0.7000000   0.3000000), wk =   0.0002500
        k(  280) = (   0.4000000  -0.6000000   0.2250000), wk =   0.0001250
        k(  281) = (   0.4000000  -0.6250000   0.2500000), wk =   0.0002500
        k(  282) = (   0.4000000  -0.6500000   0.2750000), wk =   0.0002500
        k(  283) = (   0.4000000  -0.6750000   0.3000000), wk =   0.0002500
        k(  284) = (   0.3750000  -0.6250000   0.2750000), wk =   0.0001250
        k(  285) = (   0.3750000  -0.6500000   0.3000000), wk =   0.0002500
        k(  286) = (   0.3750000  -0.6750000   0.3250000), wk =   0.0002500
        k(  287) = (   0.3500000  -0.6500000   0.3250000), wk =   0.0001250
        k(  288) = (   0.0000000   0.0000000   0.0750000), wk =   0.0000312
        k(  289) = (   0.0000000  -0.0250000   0.1000000), wk =   0.0001250
        k(  290) = (   0.0000000  -0.0500000   0.1250000), wk =   0.0001250
        k(  291) = (   0.0000000  -0.0750000   0.1500000), wk =   0.0001250
        k(  292) = (   0.0000000  -0.1000000   0.1750000), wk =   0.0001250
        k(  293) = (   0.0000000  -0.1250000   0.2000000), wk =   0.0001250
        k(  294) = (   0.0000000  -0.1500000   0.2250000), wk =   0.0001250
        k(  295) = (   0.0000000  -0.1750000   0.2500000), wk =   0.0001250
        k(  296) = (   0.0000000  -0.2000000   0.2750000), wk =   0.0001250
        k(  297) = (   0.0000000  -0.2250000   0.3000000), wk =   0.0001250
        k(  298) = (   0.0000000  -0.2500000   0.3250000), wk =   0.0001250
        k(  299) = (   0.0000000  -0.2750000   0.3500000), wk =   0.0001250
        k(  300) = (   0.0000000  -0.3000000   0.3750000), wk =   0.0001250
        k(  301) = (   0.0000000  -0.3250000   0.4000000), wk =   0.0001250
        k(  302) = (   0.0000000  -0.3500000   0.4250000), wk =   0.0001250
        k(  303) = (   0.0000000  -0.3750000   0.4500000), wk =   0.0001250
        k(  304) = (   0.0000000  -0.4000000   0.4750000), wk =   0.0001250
        k(  305) = (   0.0000000  -0.4250000   0.5000000), wk =   0.0001250
        k(  306) = (   0.0000000  -0.4500000   0.5250000), wk =   0.0001250
        k(  307) = (  -0.0250000  -0.0250000   0.1250000), wk =   0.0001250
        k(  308) = (  -0.0250000  -0.0500000   0.1500000), wk =   0.0002500
        k(  309) = (  -0.0250000  -0.0750000   0.1750000), wk =   0.0002500
        k(  310) = (  -0.0250000  -0.1000000   0.2000000), wk =   0.0002500
        k(  311) = (  -0.0250000  -0.1250000   0.2250000), wk =   0.0002500
        k(  312) = (  -0.0250000  -0.1500000   0.2500000), wk =   0.0002500
        k(  313) = (  -0.0250000  -0.1750000   0.2750000), wk =   0.0002500
        k(  314) = (  -0.0250000  -0.2000000   0.3000000), wk =   0.0002500
        k(  315) = (  -0.0250000  -0.2250000   0.3250000), wk =   0.0002500
        k(  316) = (  -0.0250000  -0.2500000   0.3500000), wk =   0.0002500
        k(  317) = (  -0.0250000  -0.2750000   0.3750000), wk =   0.0002500
        k(  318) = (  -0.0250000  -0.3000000   0.4000000), wk =   0.0002500
        k(  319) = (  -0.0250000  -0.3250000   0.4250000), wk =   0.0002500
        k(  320) = (  -0.0250000  -0.3500000   0.4500000), wk =   0.0002500
        k(  321) = (  -0.0250000  -0.3750000   0.4750000), wk =   0.0002500
        k(  322) = (  -0.0250000  -0.4000000   0.5000000), wk =   0.0002500
        k(  323) = (  -0.0250000  -0.4250000   0.5250000), wk =   0.0002500
        k(  324) = (  -0.0250000   0.5500000  -0.4500000), wk =   0.0002500
        k(  325) = (  -0.0500000  -0.0500000   0.1750000), wk =   0.0001250
        k(  326) = (  -0.0500000  -0.0750000   0.2000000), wk =   0.0002500
        k(  327) = (  -0.0500000  -0.1000000   0.2250000), wk =   0.0002500
        k(  328) = (  -0.0500000  -0.1250000   0.2500000), wk =   0.0002500
        k(  329) = (  -0.0500000  -0.1500000   0.2750000), wk =   0.0002500
        k(  330) = (  -0.0500000  -0.1750000   0.3000000), wk =   0.0002500
        k(  331) = (  -0.0500000  -0.2000000   0.3250000), wk =   0.0002500
        k(  332) = (  -0.0500000  -0.2250000   0.3500000), wk =   0.0002500
        k(  333) = (  -0.0500000  -0.2500000   0.3750000), wk =   0.0002500
        k(  334) = (  -0.0500000  -0.2750000   0.4000000), wk =   0.0002500
        k(  335) = (  -0.0500000  -0.3000000   0.4250000), wk =   0.0002500
        k(  336) = (  -0.0500000  -0.3250000   0.4500000), wk =   0.0002500
        k(  337) = (  -0.0500000  -0.3500000   0.4750000), wk =   0.0002500
        k(  338) = (  -0.0500000  -0.3750000   0.5000000), wk =   0.0002500
        k(  339) = (  -0.0500000  -0.4000000   0.5250000), wk =   0.0002500
        k(  340) = (  -0.0500000   0.5750000  -0.4500000), wk =   0.0002500
        k(  341) = (  -0.0750000   0.0750000   0.0750000), wk =   0.0001250
        k(  342) = (  -0.0750000  -0.0750000   0.2250000), wk =   0.0001250
        k(  343) = (  -0.0750000  -0.1000000   0.2500000), wk =   0.0002500
        k(  344) = (  -0.0750000  -0.1250000   0.2750000), wk =   0.0002500
        k(  345) = (  -0.0750000  -0.1500000   0.3000000), wk =   0.0002500
        k(  346) = (  -0.0750000  -0.1750000   0.3250000), wk =   0.0002500
        k(  347) = (  -0.0750000  -0.2000000   0.3500000), wk =   0.0002500
        k(  348) = (  -0.0750000  -0.2250000   0.3750000), wk =   0.0002500
        k(  349) = (  -0.0750000  -0.2500000   0.4000000), wk =   0.0002500
        k(  350) = (  -0.0750000  -0.2750000   0.4250000), wk =   0.0002500
        k(  351) = (  -0.0750000  -0.3000000   0.4500000), wk =   0.0002500
        k(  352) = (  -0.0750000  -0.3250000   0.4750000), wk =   0.0002500
        k(  353) = (  -0.0750000  -0.3500000   0.5000000), wk =   0.0002500
        k(  354) = (  -0.0750000  -0.3750000   0.5250000), wk =   0.0002500
        k(  355) = (  -0.0750000   0.6000000  -0.4500000), wk =   0.0002500
        k(  356) = (  -0.0750000   0.5750000  -0.4250000), wk =   0.0002500
        k(  357) = (  -0.1000000   0.1000000   0.0750000), wk =   0.0001250
        k(  358) = (  -0.1000000  -0.1000000   0.2750000), wk =   0.0001250
        k(  359) = (  -0.1000000  -0.1250000   0.3000000), wk =   0.0002500
        k(  360) = (  -0.1000000  -0.1500000   0.3250000), wk =   0.0002500
        k(  361) = (  -0.1000000  -0.1750000   0.3500000), wk =   0.0002500
        k(  362) = (  -0.1000000  -0.2000000   0.3750000), wk =   0.0002500
        k(  363) = (  -0.1000000  -0.2250000   0.4000000), wk =   0.0002500
        k(  364) = (  -0.1000000  -0.2500000   0.4250000), wk =   0.0002500
        k(  365) = (  -0.1000000  -0.2750000   0.4500000), wk =   0.0002500
        k(  366) = (  -0.1000000  -0.3000000   0.4750000), wk =   0.0002500
        k(  367) = (  -0.1000000  -0.3250000   0.5000000), wk =   0.0002500
        k(  368) = (  -0.1000000  -0.3500000   0.5250000), wk =   0.0002500
        k(  369) = (  -0.1000000   0.6250000  -0.4500000), wk =   0.0002500
        k(  370) = (  -0.1000000   0.6000000  -0.4250000), wk =   0.0002500
        k(  371) = (  -0.1250000   0.1250000   0.0750000), wk =   0.0001250
        k(  372) = (  -0.1250000   0.1000000   0.1000000), wk =   0.0002500
        k(  373) = (  -0.1250000  -0.1250000   0.3250000), wk =   0.0001250
        k(  374) = (  -0.1250000  -0.1500000   0.3500000), wk =   0.0002500
        k(  375) = (  -0.1250000  -0.1750000   0.3750000), wk =   0.0002500
        k(  376) = (  -0.1250000  -0.2000000   0.4000000), wk =   0.0002500
        k(  377) = (  -0.1250000  -0.2250000   0.4250000), wk =   0.0002500
        k(  378) = (  -0.1250000  -0.2500000   0.4500000), wk =   0.0002500
        k(  379) = (  -0.1250000  -0.2750000   0.4750000), wk =   0.0002500
        k(  380) = (  -0.1250000  -0.3000000   0.5000000), wk =   0.0002500
        k(  381) = (  -0.1250000  -0.3250000   0.5250000), wk =   0.0002500
        k(  382) = (  -0.1250000   0.6500000  -0.4500000), wk =   0.0002500
        k(  383) = (  -0.1250000   0.6250000  -0.4250000), wk =   0.0002500
        k(  384) = (  -0.1250000   0.6000000  -0.4000000), wk =   0.0002500
        k(  385) = (  -0.1500000   0.1500000   0.0750000), wk =   0.0001250
        k(  386) = (  -0.1500000   0.1250000   0.1000000), wk =   0.0002500
        k(  387) = (  -0.1500000  -0.1500000   0.3750000), wk =   0.0001250
        k(  388) = (  -0.1500000  -0.1750000   0.4000000), wk =   0.0002500
        k(  389) = (  -0.1500000  -0.2000000   0.4250000), wk =   0.0002500
        k(  390) = (  -0.1500000  -0.2250000   0.4500000), wk =   0.0002500
        k(  391) = (  -0.1500000  -0.2500000   0.4750000), wk =   0.0002500
        k(  392) = (  -0.1500000  -0.2750000   0.5000000), wk =   0.0002500
        k(  393) = (  -0.1500000  -0.3000000   0.5250000), wk =   0.0002500
        k(  394) = (  -0.1500000   0.6750000  -0.4500000), wk =   0.0002500
        k(  395) = (  -0.1500000   0.6500000  -0.4250000), wk =   0.0002500
        k(  396) = (  -0.1500000   0.6250000  -0.4000000), wk =   0.0002500
        k(  397) = (  -0.1750000   0.1750000   0.0750000), wk =   0.0001250
        k(  398) = (  -0.1750000   0.1500000   0.1000000), wk =   0.0002500
        k(  399) = (  -0.1750000   0.1250000   0.1250000), wk =   0.0002500
        k(  400) = (  -0.1750000  -0.1750000   0.4250000), wk =   0.0001250
        k(  401) = (  -0.1750000  -0.2000000   0.4500000), wk =   0.0002500
        k(  402) = (  -0.1750000  -0.2250000   0.4750000), wk =   0.0002500
        k(  403) = (  -0.1750000  -0.2500000   0.5000000), wk =   0.0002500
        k(  404) = (  -0.1750000  -0.2750000   0.5250000), wk =   0.0002500
        k(  405) = (  -0.1750000   0.7000000  -0.4500000), wk =   0.0002500
        k(  406) = (  -0.1750000   0.6750000  -0.4250000), wk =   0.0002500
        k(  407) = (  -0.1750000   0.6500000  -0.4000000), wk =   0.0002500
        k(  408) = (  -0.1750000   0.6250000  -0.3750000), wk =   0.0002500
        k(  409) = (  -0.2000000   0.2000000   0.0750000), wk =   0.0001250
        k(  410) = (  -0.2000000   0.1750000   0.1000000), wk =   0.0002500
        k(  411) = (  -0.2000000   0.1500000   0.1250000), wk =   0.0002500
        k(  412) = (  -0.2000000  -0.2000000   0.4750000), wk =   0.0001250
        k(  413) = (  -0.2000000  -0.2250000   0.5000000), wk =   0.0002500
        k(  414) = (  -0.2000000  -0.2500000   0.5250000), wk =   0.0002500
        k(  415) = (  -0.2000000   0.7250000  -0.4500000), wk =   0.0002500
        k(  416) = (  -0.2000000   0.7000000  -0.4250000), wk =   0.0002500
        k(  417) = (  -0.2000000   0.6750000  -0.4000000), wk =   0.0002500
        k(  418) = (  -0.2000000   0.6500000  -0.3750000), wk =   0.0002500
        k(  419) = (  -0.2250000   0.2250000   0.0750000), wk =   0.0001250
        k(  420) = (  -0.2250000   0.2000000   0.1000000), wk =   0.0002500
        k(  421) = (  -0.2250000   0.1750000   0.1250000), wk =   0.0002500
        k(  422) = (  -0.2250000   0.1500000   0.1500000), wk =   0.0002500
        k(  423) = (  -0.2250000  -0.2250000   0.5250000), wk =   0.0001250
        k(  424) = (  -0.2250000   0.7500000  -0.4500000), wk =   0.0002500
        k(  425) = (  -0.2250000   0.7250000  -0.4250000), wk =   0.0002500
        k(  426) = (  -0.2250000   0.7000000  -0.4000000), wk =   0.0002500
        k(  427) = (  -0.2250000   0.6750000  -0.3750000), wk =   0.0002500
        k(  428) = (  -0.2250000   0.6500000  -0.3500000), wk =   0.0002500
        k(  429) = (  -0.2500000   0.2500000   0.0750000), wk =   0.0001250
        k(  430) = (  -0.2500000   0.2250000   0.1000000), wk =   0.0002500
        k(  431) = (  -0.2500000   0.2000000   0.1250000), wk =   0.0002500
        k(  432) = (  -0.2500000   0.1750000   0.1500000), wk =   0.0002500
        k(  433) = (  -0.2500000   0.7500000  -0.4250000), wk =   0.0001250
        k(  434) = (  -0.2500000   0.7250000  -0.4000000), wk =   0.0002500
        k(  435) = (  -0.2500000   0.7000000  -0.3750000), wk =   0.0002500
        k(  436) = (  -0.2500000   0.6750000  -0.3500000), wk =   0.0002500
        k(  437) = (  -0.2750000   0.2750000   0.0750000), wk =   0.0001250
        k(  438) = (  -0.2750000   0.2500000   0.1000000), wk =   0.0002500
        k(  439) = (  -0.2750000   0.2250000   0.1250000), wk =   0.0002500
        k(  440) = (  -0.2750000   0.2000000   0.1500000), wk =   0.0002500
        k(  441) = (  -0.2750000   0.1750000   0.1750000), wk =   0.0002500
        k(  442) = (  -0.2750000   0.7250000  -0.3750000), wk =   0.0001250
        k(  443) = (  -0.2750000   0.7000000  -0.3500000), wk =   0.0002500
        k(  444) = (  -0.2750000   0.6750000  -0.3250000), wk =   0.0002500
        k(  445) = (  -0.3000000   0.3000000   0.0750000), wk =   0.0001250
        k(  446) = (  -0.3000000   0.2750000   0.1000000), wk =   0.0002500
        k(  447) = (  -0.3000000   0.2500000   0.1250000), wk =   0.0002500
        k(  448) = (  -0.3000000   0.2250000   0.1500000), wk =   0.0002500
        k(  449) = (  -0.3000000   0.2000000   0.1750000), wk =   0.0002500
        k(  450) = (  -0.3000000   0.7000000  -0.3250000), wk =   0.0001250
        k(  451) = (  -0.3250000   0.3250000   0.0750000), wk =   0.0001250
        k(  452) = (  -0.3250000   0.3000000   0.1000000), wk =   0.0002500
        k(  453) = (  -0.3250000   0.2750000   0.1250000), wk =   0.0002500
        k(  454) = (  -0.3250000   0.2500000   0.1500000), wk =   0.0002500
        k(  455) = (  -0.3250000   0.2250000   0.1750000), wk =   0.0002500
        k(  456) = (  -0.3250000   0.2000000   0.2000000), wk =   0.0002500
        k(  457) = (  -0.3500000   0.3500000   0.0750000), wk =   0.0001250
        k(  458) = (  -0.3500000   0.3250000   0.1000000), wk =   0.0002500
        k(  459) = (  -0.3500000   0.3000000   0.1250000), wk =   0.0002500
        k(  460) = (  -0.3500000   0.2750000   0.1500000), wk =   0.0002500
        k(  461) = (  -0.3500000   0.2500000   0.1750000), wk =   0.0002500
        k(  462) = (  -0.3500000   0.2250000   0.2000000), wk =   0.0002500
        k(  463) = (  -0.3750000   0.3750000   0.0750000), wk =   0.0001250
        k(  464) = (  -0.3750000   0.3500000   0.1000000), wk =   0.0002500
        k(  465) = (  -0.3750000   0.3250000   0.1250000), wk =   0.0002500
        k(  466) = (  -0.3750000   0.3000000   0.1500000), wk =   0.0002500
        k(  467) = (  -0.3750000   0.2750000   0.1750000), wk =   0.0002500
        k(  468) = (  -0.3750000   0.2500000   0.2000000), wk =   0.0002500
        k(  469) = (  -0.3750000   0.2250000   0.2250000), wk =   0.0002500
        k(  470) = (  -0.4000000   0.4000000   0.0750000), wk =   0.0001250
        k(  471) = (  -0.4000000   0.3750000   0.1000000), wk =   0.0002500
        k(  472) = (  -0.4000000   0.3500000   0.1250000), wk =   0.0002500
        k(  473) = (  -0.4000000   0.3250000   0.1500000), wk =   0.0002500
        k(  474) = (  -0.4000000   0.3000000   0.1750000), wk =   0.0002500
        k(  475) = (  -0.4000000   0.2750000   0.2000000), wk =   0.0002500
        k(  476) = (  -0.4000000   0.2500000   0.2250000), wk =   0.0002500
        k(  477) = (  -0.4250000   0.4250000   0.0750000), wk =   0.0001250
        k(  478) = (  -0.4250000   0.4000000   0.1000000), wk =   0.0002500
        k(  479) = (  -0.4250000   0.3750000   0.1250000), wk =   0.0002500
        k(  480) = (  -0.4250000   0.3500000   0.1500000), wk =   0.0002500
        k(  481) = (  -0.4250000   0.3250000   0.1750000), wk =   0.0002500
        k(  482) = (  -0.4250000   0.3000000   0.2000000), wk =   0.0002500
        k(  483) = (  -0.4250000   0.2750000   0.2250000), wk =   0.0002500
        k(  484) = (  -0.4250000   0.2500000   0.2500000), wk =   0.0002500
        k(  485) = (  -0.4500000   0.4500000   0.0750000), wk =   0.0001250
        k(  486) = (  -0.4500000   0.4250000   0.1000000), wk =   0.0002500
        k(  487) = (  -0.4500000   0.4000000   0.1250000), wk =   0.0002500
        k(  488) = (  -0.4500000   0.3750000   0.1500000), wk =   0.0002500
        k(  489) = (  -0.4500000   0.3500000   0.1750000), wk =   0.0002500
        k(  490) = (  -0.4500000   0.3250000   0.2000000), wk =   0.0002500
        k(  491) = (  -0.4500000   0.3000000   0.2250000), wk =   0.0002500
        k(  492) = (  -0.4500000   0.2750000   0.2500000), wk =   0.0002500
        k(  493) = (   0.5250000  -0.5250000   0.0750000), wk =   0.0001250
        k(  494) = (   0.5250000  -0.5500000   0.1000000), wk =   0.0002500
        k(  495) = (   0.5250000  -0.5750000   0.1250000), wk =   0.0002500
        k(  496) = (   0.5250000  -0.6000000   0.1500000), wk =   0.0002500
        k(  497) = (   0.5250000  -0.6250000   0.1750000), wk =   0.0002500
        k(  498) = (   0.5250000  -0.6500000   0.2000000), wk =   0.0002500
        k(  499) = (   0.5250000  -0.6750000   0.2250000), wk =   0.0002500
        k(  500) = (   0.5250000  -0.7000000   0.2500000), wk =   0.0002500
        k(  501) = (   0.5250000  -0.7250000   0.2750000), wk =   0.0002500
        k(  502) = (   0.5000000  -0.5000000   0.0750000), wk =   0.0000625
        k(  503) = (   0.5000000  -0.5250000   0.1000000), wk =   0.0002500
        k(  504) = (   0.5000000  -0.5500000   0.1250000), wk =   0.0002500
        k(  505) = (   0.5000000  -0.5750000   0.1500000), wk =   0.0002500
        k(  506) = (   0.5000000  -0.6000000   0.1750000), wk =   0.0002500
        k(  507) = (   0.5000000  -0.6250000   0.2000000), wk =   0.0002500
        k(  508) = (   0.5000000  -0.6500000   0.2250000), wk =   0.0002500
        k(  509) = (   0.5000000  -0.6750000   0.2500000), wk =   0.0002500
        k(  510) = (   0.5000000  -0.7000000   0.2750000), wk =   0.0002500
        k(  511) = (   0.4750000  -0.5250000   0.1250000), wk =   0.0001250
        k(  512) = (   0.4750000  -0.5500000   0.1500000), wk =   0.0002500
        k(  513) = (   0.4750000  -0.5750000   0.1750000), wk =   0.0002500
        k(  514) = (   0.4750000  -0.6000000   0.2000000), wk =   0.0002500
        k(  515) = (   0.4750000  -0.6250000   0.2250000), wk =   0.0002500
        k(  516) = (   0.4750000  -0.6500000   0.2500000), wk =   0.0002500
        k(  517) = (   0.4750000  -0.6750000   0.2750000), wk =   0.0002500
        k(  518) = (   0.4750000  -0.7000000   0.3000000), wk =   0.0002500
        k(  519) = (   0.4500000  -0.5500000   0.1750000), wk =   0.0001250
        k(  520) = (   0.4500000  -0.5750000   0.2000000), wk =   0.0002500
        k(  521) = (   0.4500000  -0.6000000   0.2250000), wk =   0.0002500
        k(  522) = (   0.4500000  -0.6250000   0.2500000), wk =   0.0002500
        k(  523) = (   0.4500000  -0.6500000   0.2750000), wk =   0.0002500
        k(  524) = (   0.4500000  -0.6750000   0.3000000), wk =   0.0002500
        k(  525) = (   0.4250000  -0.5750000   0.2250000), wk =   0.0001250
        k(  526) = (   0.4250000  -0.6000000   0.2500000), wk =   0.0002500
        k(  527) = (   0.4250000  -0.6250000   0.2750000), wk =   0.0002500
        k(  528) = (   0.4250000  -0.6500000   0.3000000), wk =   0.0002500
        k(  529) = (   0.4250000  -0.6750000   0.3250000), wk =   0.0002500
        k(  530) = (   0.4000000  -0.6000000   0.2750000), wk =   0.0001250
        k(  531) = (   0.4000000  -0.6250000   0.3000000), wk =   0.0002500
        k(  532) = (   0.4000000  -0.6500000   0.3250000), wk =   0.0002500
        k(  533) = (   0.3750000  -0.6250000   0.3250000), wk =   0.0001250
        k(  534) = (   0.3750000  -0.6500000   0.3500000), wk =   0.0002500
        k(  535) = (   0.0000000   0.0000000   0.1250000), wk =   0.0000312
        k(  536) = (   0.0000000  -0.0250000   0.1500000), wk =   0.0001250
        k(  537) = (   0.0000000  -0.0500000   0.1750000), wk =   0.0001250
        k(  538) = (   0.0000000  -0.0750000   0.2000000), wk =   0.0001250
        k(  539) = (   0.0000000  -0.1000000   0.2250000), wk =   0.0001250
        k(  540) = (   0.0000000  -0.1250000   0.2500000), wk =   0.0001250
        k(  541) = (   0.0000000  -0.1500000   0.2750000), wk =   0.0001250
        k(  542) = (   0.0000000  -0.1750000   0.3000000), wk =   0.0001250
        k(  543) = (   0.0000000  -0.2000000   0.3250000), wk =   0.0001250
        k(  544) = (   0.0000000  -0.2250000   0.3500000), wk =   0.0001250
        k(  545) = (   0.0000000  -0.2500000   0.3750000), wk =   0.0001250
        k(  546) = (   0.0000000  -0.2750000   0.4000000), wk =   0.0001250
        k(  547) = (   0.0000000  -0.3000000   0.4250000), wk =   0.0001250
        k(  548) = (   0.0000000  -0.3250000   0.4500000), wk =   0.0001250
        k(  549) = (   0.0000000  -0.3500000   0.4750000), wk =   0.0001250
        k(  550) = (   0.0000000  -0.3750000   0.5000000), wk =   0.0001250
        k(  551) = (   0.0000000  -0.4000000   0.5250000), wk =   0.0001250
        k(  552) = (   0.0000000  -0.4250000   0.5500000), wk =   0.0001250
        k(  553) = (  -0.0250000  -0.0250000   0.1750000), wk =   0.0001250
        k(  554) = (  -0.0250000  -0.0500000   0.2000000), wk =   0.0002500
        k(  555) = (  -0.0250000  -0.0750000   0.2250000), wk =   0.0002500
        k(  556) = (  -0.0250000  -0.1000000   0.2500000), wk =   0.0002500
        k(  557) = (  -0.0250000  -0.1250000   0.2750000), wk =   0.0002500
        k(  558) = (  -0.0250000  -0.1500000   0.3000000), wk =   0.0002500
        k(  559) = (  -0.0250000  -0.1750000   0.3250000), wk =   0.0002500
        k(  560) = (  -0.0250000  -0.2000000   0.3500000), wk =   0.0002500
        k(  561) = (  -0.0250000  -0.2250000   0.3750000), wk =   0.0002500
        k(  562) = (  -0.0250000  -0.2500000   0.4000000), wk =   0.0002500
        k(  563) = (  -0.0250000  -0.2750000   0.4250000), wk =   0.0002500
        k(  564) = (  -0.0250000  -0.3000000   0.4500000), wk =   0.0002500
        k(  565) = (  -0.0250000  -0.3250000   0.4750000), wk =   0.0002500
        k(  566) = (  -0.0250000  -0.3500000   0.5000000), wk =   0.0002500
        k(  567) = (  -0.0250000  -0.3750000   0.5250000), wk =   0.0002500
        k(  568) = (  -0.0250000  -0.4000000   0.5500000), wk =   0.0002500
        k(  569) = (  -0.0250000   0.5750000  -0.4250000), wk =   0.0002500
        k(  570) = (  -0.0500000  -0.0500000   0.2250000), wk =   0.0001250
        k(  571) = (  -0.0500000  -0.0750000   0.2500000), wk =   0.0002500
        k(  572) = (  -0.0500000  -0.1000000   0.2750000), wk =   0.0002500
        k(  573) = (  -0.0500000  -0.1250000   0.3000000), wk =   0.0002500
        k(  574) = (  -0.0500000  -0.1500000   0.3250000), wk =   0.0002500
        k(  575) = (  -0.0500000  -0.1750000   0.3500000), wk =   0.0002500
        k(  576) = (  -0.0500000  -0.2000000   0.3750000), wk =   0.0002500
        k(  577) = (  -0.0500000  -0.2250000   0.4000000), wk =   0.0002500
        k(  578) = (  -0.0500000  -0.2500000   0.4250000), wk =   0.0002500
        k(  579) = (  -0.0500000  -0.2750000   0.4500000), wk =   0.0002500
        k(  580) = (  -0.0500000  -0.3000000   0.4750000), wk =   0.0002500
        k(  581) = (  -0.0500000  -0.3250000   0.5000000), wk =   0.0002500
        k(  582) = (  -0.0500000  -0.3500000   0.5250000), wk =   0.0002500
        k(  583) = (  -0.0500000  -0.3750000   0.5500000), wk =   0.0002500
        k(  584) = (  -0.0500000   0.6000000  -0.4250000), wk =   0.0002500
        k(  585) = (  -0.0750000  -0.0750000   0.2750000), wk =   0.0001250
        k(  586) = (  -0.0750000  -0.1000000   0.3000000), wk =   0.0002500
        k(  587) = (  -0.0750000  -0.1250000   0.3250000), wk =   0.0002500
        k(  588) = (  -0.0750000  -0.1500000   0.3500000), wk =   0.0002500
        k(  589) = (  -0.0750000  -0.1750000   0.3750000), wk =   0.0002500
        k(  590) = (  -0.0750000  -0.2000000   0.4000000), wk =   0.0002500
        k(  591) = (  -0.0750000  -0.2250000   0.4250000), wk =   0.0002500
        k(  592) = (  -0.0750000  -0.2500000   0.4500000), wk =   0.0002500
        k(  593) = (  -0.0750000  -0.2750000   0.4750000), wk =   0.0002500
        k(  594) = (  -0.0750000  -0.3000000   0.5000000), wk =   0.0002500
        k(  595) = (  -0.0750000  -0.3250000   0.5250000), wk =   0.0002500
        k(  596) = (  -0.0750000  -0.3500000   0.5500000), wk =   0.0002500
        k(  597) = (  -0.0750000   0.6250000  -0.4250000), wk =   0.0002500
        k(  598) = (  -0.0750000   0.6000000  -0.4000000), wk =   0.0002500
        k(  599) = (  -0.1000000  -0.1000000   0.3250000), wk =   0.0001250
        k(  600) = (  -0.1000000  -0.1250000   0.3500000), wk =   0.0002500
        k(  601) = (  -0.1000000  -0.1500000   0.3750000), wk =   0.0002500
        k(  602) = (  -0.1000000  -0.1750000   0.4000000), wk =   0.0002500
        k(  603) = (  -0.1000000  -0.2000000   0.4250000), wk =   0.0002500
        k(  604) = (  -0.1000000  -0.2250000   0.4500000), wk =   0.0002500
        k(  605) = (  -0.1000000  -0.2500000   0.4750000), wk =   0.0002500
        k(  606) = (  -0.1000000  -0.2750000   0.5000000), wk =   0.0002500
        k(  607) = (  -0.1000000  -0.3000000   0.5250000), wk =   0.0002500
        k(  608) = (  -0.1000000  -0.3250000   0.5500000), wk =   0.0002500
        k(  609) = (  -0.1000000   0.6500000  -0.4250000), wk =   0.0002500
        k(  610) = (  -0.1000000   0.6250000  -0.4000000), wk =   0.0002500
        k(  611) = (  -0.1250000   0.1250000   0.1250000), wk =   0.0001250
        k(  612) = (  -0.1250000  -0.1250000   0.3750000), wk =   0.0001250
        k(  613) = (  -0.1250000  -0.1500000   0.4000000), wk =   0.0002500
        k(  614) = (  -0.1250000  -0.1750000   0.4250000), wk =   0.0002500
        k(  615) = (  -0.1250000  -0.2000000   0.4500000), wk =   0.0002500
        k(  616) = (  -0.1250000  -0.2250000   0.4750000), wk =   0.0002500
        k(  617) = (  -0.1250000  -0.2500000   0.5000000), wk =   0.0002500
        k(  618) = (  -0.1250000  -0.2750000   0.5250000), wk =   0.0002500
        k(  619) = (  -0.1250000  -0.3000000   0.5500000), wk =   0.0002500
        k(  620) = (  -0.1250000   0.6750000  -0.4250000), wk =   0.0002500
        k(  621) = (  -0.1250000   0.6500000  -0.4000000), wk =   0.0002500
        k(  622) = (  -0.1250000   0.6250000  -0.3750000), wk =   0.0002500
        k(  623) = (  -0.1500000   0.1500000   0.1250000), wk =   0.0001250
        k(  624) = (  -0.1500000  -0.1500000   0.4250000), wk =   0.0001250
        k(  625) = (  -0.1500000  -0.1750000   0.4500000), wk =   0.0002500
        k(  626) = (  -0.1500000  -0.2000000   0.4750000), wk =   0.0002500
        k(  627) = (  -0.1500000  -0.2250000   0.5000000), wk =   0.0002500
        k(  628) = (  -0.1500000  -0.2500000   0.5250000), wk =   0.0002500
        k(  629) = (  -0.1500000  -0.2750000   0.5500000), wk =   0.0002500
        k(  630) = (  -0.1500000   0.7000000  -0.4250000), wk =   0.0002500
        k(  631) = (  -0.1500000   0.6750000  -0.4000000), wk =   0.0002500
        k(  632) = (  -0.1500000   0.6500000  -0.3750000), wk =   0.0002500
        k(  633) = (  -0.1750000   0.1750000   0.1250000), wk =   0.0001250
        k(  634) = (  -0.1750000   0.1500000   0.1500000), wk =   0.0002500
        k(  635) = (  -0.1750000  -0.1750000   0.4750000), wk =   0.0001250
        k(  636) = (  -0.1750000  -0.2000000   0.5000000), wk =   0.0002500
        k(  637) = (  -0.1750000  -0.2250000   0.5250000), wk =   0.0002500
        k(  638) = (  -0.1750000  -0.2500000   0.5500000), wk =   0.0002500
        k(  639) = (  -0.1750000   0.7250000  -0.4250000), wk =   0.0002500
        k(  640) = (  -0.1750000   0.7000000  -0.4000000), wk =   0.0002500
        k(  641) = (  -0.1750000   0.6750000  -0.3750000), wk =   0.0002500
        k(  642) = (  -0.1750000   0.6500000  -0.3500000), wk =   0.0002500
        k(  643) = (  -0.2000000   0.2000000   0.1250000), wk =   0.0001250
        k(  644) = (  -0.2000000   0.1750000   0.1500000), wk =   0.0002500
        k(  645) = (  -0.2000000  -0.2000000   0.5250000), wk =   0.0001250
        k(  646) = (  -0.2000000  -0.2250000   0.5500000), wk =   0.0002500
        k(  647) = (  -0.2000000   0.7500000  -0.4250000), wk =   0.0002500
        k(  648) = (  -0.2000000   0.7250000  -0.4000000), wk =   0.0002500
        k(  649) = (  -0.2000000   0.7000000  -0.3750000), wk =   0.0002500
        k(  650) = (  -0.2000000   0.6750000  -0.3500000), wk =   0.0002500
        k(  651) = (  -0.2250000   0.2250000   0.1250000), wk =   0.0001250
        k(  652) = (  -0.2250000   0.2000000   0.1500000), wk =   0.0002500
        k(  653) = (  -0.2250000   0.1750000   0.1750000), wk =   0.0002500
        k(  654) = (  -0.2250000   0.7750000  -0.4250000), wk =   0.0001250
        k(  655) = (  -0.2250000   0.7500000  -0.4000000), wk =   0.0002500
        k(  656) = (  -0.2250000   0.7250000  -0.3750000), wk =   0.0002500
        k(  657) = (  -0.2250000   0.7000000  -0.3500000), wk =   0.0002500
        k(  658) = (  -0.2250000   0.6750000  -0.3250000), wk =   0.0002500
        k(  659) = (  -0.2500000   0.2500000   0.1250000), wk =   0.0001250
        k(  660) = (  -0.2500000   0.2250000   0.1500000), wk =   0.0002500
        k(  661) = (  -0.2500000   0.2000000   0.1750000), wk =   0.0002500
        k(  662) = (  -0.2500000   0.7500000  -0.3750000), wk =   0.0001250
        k(  663) = (  -0.2500000   0.7250000  -0.3500000), wk =   0.0002500
        k(  664) = (  -0.2500000   0.7000000  -0.3250000), wk =   0.0002500
        k(  665) = (  -0.2750000   0.2750000   0.1250000), wk =   0.0001250
        k(  666) = (  -0.2750000   0.2500000   0.1500000), wk =   0.0002500
        k(  667) = (  -0.2750000   0.2250000   0.1750000), wk =   0.0002500
        k(  668) = (  -0.2750000   0.2000000   0.2000000), wk =   0.0002500
        k(  669) = (  -0.2750000   0.7250000  -0.3250000), wk =   0.0001250
        k(  670) = (  -0.2750000   0.7000000  -0.3000000), wk =   0.0002500
        k(  671) = (  -0.3000000   0.3000000   0.1250000), wk =   0.0001250
        k(  672) = (  -0.3000000   0.2750000   0.1500000), wk =   0.0002500
        k(  673) = (  -0.3000000   0.2500000   0.1750000), wk =   0.0002500
        k(  674) = (  -0.3000000   0.2250000   0.2000000), wk =   0.0002500
        k(  675) = (  -0.3250000   0.3250000   0.1250000), wk =   0.0001250
        k(  676) = (  -0.3250000   0.3000000   0.1500000), wk =   0.0002500
        k(  677) = (  -0.3250000   0.2750000   0.1750000), wk =   0.0002500
        k(  678) = (  -0.3250000   0.2500000   0.2000000), wk =   0.0002500
        k(  679) = (  -0.3250000   0.2250000   0.2250000), wk =   0.0002500
        k(  680) = (  -0.3500000   0.3500000   0.1250000), wk =   0.0001250
        k(  681) = (  -0.3500000   0.3250000   0.1500000), wk =   0.0002500
        k(  682) = (  -0.3500000   0.3000000   0.1750000), wk =   0.0002500
        k(  683) = (  -0.3500000   0.2750000   0.2000000), wk =   0.0002500
        k(  684) = (  -0.3500000   0.2500000   0.2250000), wk =   0.0002500
        k(  685) = (  -0.3750000   0.3750000   0.1250000), wk =   0.0001250
        k(  686) = (  -0.3750000   0.3500000   0.1500000), wk =   0.0002500
        k(  687) = (  -0.3750000   0.3250000   0.1750000), wk =   0.0002500
        k(  688) = (  -0.3750000   0.3000000   0.2000000), wk =   0.0002500
        k(  689) = (  -0.3750000   0.2750000   0.2250000), wk =   0.0002500
        k(  690) = (  -0.3750000   0.2500000   0.2500000), wk =   0.0002500
        k(  691) = (  -0.4000000   0.4000000   0.1250000), wk =   0.0001250
        k(  692) = (  -0.4000000   0.3750000   0.1500000), wk =   0.0002500
        k(  693) = (  -0.4000000   0.3500000   0.1750000), wk =   0.0002500
        k(  694) = (  -0.4000000   0.3250000   0.2000000), wk =   0.0002500
        k(  695) = (  -0.4000000   0.3000000   0.2250000), wk =   0.0002500
        k(  696) = (  -0.4000000   0.2750000   0.2500000), wk =   0.0002500
        k(  697) = (  -0.4250000   0.4250000   0.1250000), wk =   0.0001250
        k(  698) = (  -0.4250000   0.4000000   0.1500000), wk =   0.0002500
        k(  699) = (  -0.4250000   0.3750000   0.1750000), wk =   0.0002500
        k(  700) = (  -0.4250000   0.3500000   0.2000000), wk =   0.0002500
        k(  701) = (  -0.4250000   0.3250000   0.2250000), wk =   0.0002500
        k(  702) = (  -0.4250000   0.3000000   0.2500000), wk =   0.0002500
        k(  703) = (  -0.4250000   0.2750000   0.2750000), wk =   0.0002500
        k(  704) = (   0.5500000  -0.5500000   0.1250000), wk =   0.0001250
        k(  705) = (   0.5500000  -0.5750000   0.1500000), wk =   0.0002500
        k(  706) = (   0.5500000  -0.6000000   0.1750000), wk =   0.0002500
        k(  707) = (   0.5500000  -0.6250000   0.2000000), wk =   0.0002500
        k(  708) = (   0.5500000  -0.6500000   0.2250000), wk =   0.0002500
        k(  709) = (   0.5500000  -0.6750000   0.2500000), wk =   0.0002500
        k(  710) = (   0.5500000  -0.7000000   0.2750000), wk =   0.0002500
        k(  711) = (   0.5250000  -0.5250000   0.1250000), wk =   0.0001250
        k(  712) = (   0.5250000  -0.5500000   0.1500000), wk =   0.0002500
        k(  713) = (   0.5250000  -0.5750000   0.1750000), wk =   0.0002500
        k(  714) = (   0.5250000  -0.6000000   0.2000000), wk =   0.0002500
        k(  715) = (   0.5250000  -0.6250000   0.2250000), wk =   0.0002500
        k(  716) = (   0.5250000  -0.6500000   0.2500000), wk =   0.0002500
        k(  717) = (   0.5250000  -0.6750000   0.2750000), wk =   0.0002500
        k(  718) = (   0.5250000  -0.7000000   0.3000000), wk =   0.0002500
        k(  719) = (   0.5000000  -0.5000000   0.1250000), wk =   0.0000625
        k(  720) = (   0.5000000  -0.5250000   0.1500000), wk =   0.0002500
        k(  721) = (   0.5000000  -0.5500000   0.1750000), wk =   0.0002500
        k(  722) = (   0.5000000  -0.5750000   0.2000000), wk =   0.0002500
        k(  723) = (   0.5000000  -0.6000000   0.2250000), wk =   0.0002500
        k(  724) = (   0.5000000  -0.6250000   0.2500000), wk =   0.0002500
        k(  725) = (   0.5000000  -0.6500000   0.2750000), wk =   0.0002500
        k(  726) = (   0.5000000  -0.6750000   0.3000000), wk =   0.0002500
        k(  727) = (   0.4750000  -0.5250000   0.1750000), wk =   0.0001250
        k(  728) = (   0.4750000  -0.5500000   0.2000000), wk =   0.0002500
        k(  729) = (   0.4750000  -0.5750000   0.2250000), wk =   0.0002500
        k(  730) = (   0.4750000  -0.6000000   0.2500000), wk =   0.0002500
        k(  731) = (   0.4750000  -0.6250000   0.2750000), wk =   0.0002500
        k(  732) = (   0.4750000  -0.6500000   0.3000000), wk =   0.0002500
        k(  733) = (   0.4750000  -0.6750000   0.3250000), wk =   0.0002500
        k(  734) = (   0.4500000  -0.5500000   0.2250000), wk =   0.0001250
        k(  735) = (   0.4500000  -0.5750000   0.2500000), wk =   0.0002500
        k(  736) = (   0.4500000  -0.6000000   0.2750000), wk =   0.0002500
        k(  737) = (   0.4500000  -0.6250000   0.3000000), wk =   0.0002500
        k(  738) = (   0.4500000  -0.6500000   0.3250000), wk =   0.0002500
        k(  739) = (   0.4250000  -0.5750000   0.2750000), wk =   0.0001250
        k(  740) = (   0.4250000  -0.6000000   0.3000000), wk =   0.0002500
        k(  741) = (   0.4250000  -0.6250000   0.3250000), wk =   0.0002500
        k(  742) = (   0.4250000  -0.6500000   0.3500000), wk =   0.0002500
        k(  743) = (   0.4000000  -0.6000000   0.3250000), wk =   0.0001250
        k(  744) = (   0.4000000  -0.6250000   0.3500000), wk =   0.0002500
        k(  745) = (   0.3750000  -0.6250000   0.3750000), wk =   0.0001250
        k(  746) = (   0.0000000   0.0000000   0.1750000), wk =   0.0000312
        k(  747) = (   0.0000000  -0.0250000   0.2000000), wk =   0.0001250
        k(  748) = (   0.0000000  -0.0500000   0.2250000), wk =   0.0001250
        k(  749) = (   0.0000000  -0.0750000   0.2500000), wk =   0.0001250
        k(  750) = (   0.0000000  -0.1000000   0.2750000), wk =   0.0001250
        k(  751) = (   0.0000000  -0.1250000   0.3000000), wk =   0.0001250
        k(  752) = (   0.0000000  -0.1500000   0.3250000), wk =   0.0001250
        k(  753) = (   0.0000000  -0.1750000   0.3500000), wk =   0.0001250
        k(  754) = (   0.0000000  -0.2000000   0.3750000), wk =   0.0001250
        k(  755) = (   0.0000000  -0.2250000   0.4000000), wk =   0.0001250
        k(  756) = (   0.0000000  -0.2500000   0.4250000), wk =   0.0001250
        k(  757) = (   0.0000000  -0.2750000   0.4500000), wk =   0.0001250
        k(  758) = (   0.0000000  -0.3000000   0.4750000), wk =   0.0001250
        k(  759) = (   0.0000000  -0.3250000   0.5000000), wk =   0.0001250
        k(  760) = (   0.0000000  -0.3500000   0.5250000), wk =   0.0001250
        k(  761) = (   0.0000000  -0.3750000   0.5500000), wk =   0.0001250
        k(  762) = (   0.0000000  -0.4000000   0.5750000), wk =   0.0001250
        k(  763) = (  -0.0250000  -0.0250000   0.2250000), wk =   0.0001250
        k(  764) = (  -0.0250000  -0.0500000   0.2500000), wk =   0.0002500
        k(  765) = (  -0.0250000  -0.0750000   0.2750000), wk =   0.0002500
        k(  766) = (  -0.0250000  -0.1000000   0.3000000), wk =   0.0002500
        k(  767) = (  -0.0250000  -0.1250000   0.3250000), wk =   0.0002500
        k(  768) = (  -0.0250000  -0.1500000   0.3500000), wk =   0.0002500
        k(  769) = (  -0.0250000  -0.1750000   0.3750000), wk =   0.0002500
        k(  770) = (  -0.0250000  -0.2000000   0.4000000), wk =   0.0002500
        k(  771) = (  -0.0250000  -0.2250000   0.4250000), wk =   0.0002500
        k(  772) = (  -0.0250000  -0.2500000   0.4500000), wk =   0.0002500
        k(  773) = (  -0.0250000  -0.2750000   0.4750000), wk =   0.0002500
        k(  774) = (  -0.0250000  -0.3000000   0.5000000), wk =   0.0002500
        k(  775) = (  -0.0250000  -0.3250000   0.5250000), wk =   0.0002500
        k(  776) = (  -0.0250000  -0.3500000   0.5500000), wk =   0.0002500
        k(  777) = (  -0.0250000  -0.3750000   0.5750000), wk =   0.0002500
        k(  778) = (  -0.0250000   0.6000000  -0.4000000), wk =   0.0002500
        k(  779) = (  -0.0500000  -0.0500000   0.2750000), wk =   0.0001250
        k(  780) = (  -0.0500000  -0.0750000   0.3000000), wk =   0.0002500
        k(  781) = (  -0.0500000  -0.1000000   0.3250000), wk =   0.0002500
        k(  782) = (  -0.0500000  -0.1250000   0.3500000), wk =   0.0002500
        k(  783) = (  -0.0500000  -0.1500000   0.3750000), wk =   0.0002500
        k(  784) = (  -0.0500000  -0.1750000   0.4000000), wk =   0.0002500
        k(  785) = (  -0.0500000  -0.2000000   0.4250000), wk =   0.0002500
        k(  786) = (  -0.0500000  -0.2250000   0.4500000), wk =   0.0002500
        k(  787) = (  -0.0500000  -0.2500000   0.4750000), wk =   0.0002500
        k(  788) = (  -0.0500000  -0.2750000   0.5000000), wk =   0.0002500
        k(  789) = (  -0.0500000  -0.3000000   0.5250000), wk =   0.0002500
        k(  790) = (  -0.0500000  -0.3250000   0.5500000), wk =   0.0002500
        k(  791) = (  -0.0500000  -0.3500000   0.5750000), wk =   0.0002500
        k(  792) = (  -0.0500000   0.6250000  -0.4000000), wk =   0.0002500
        k(  793) = (  -0.0750000  -0.0750000   0.3250000), wk =   0.0001250
        k(  794) = (  -0.0750000  -0.1000000   0.3500000), wk =   0.0002500
        k(  795) = (  -0.0750000  -0.1250000   0.3750000), wk =   0.0002500
        k(  796) = (  -0.0750000  -0.1500000   0.4000000), wk =   0.0002500
        k(  797) = (  -0.0750000  -0.1750000   0.4250000), wk =   0.0002500
        k(  798) = (  -0.0750000  -0.2000000   0.4500000), wk =   0.0002500
        k(  799) = (  -0.0750000  -0.2250000   0.4750000), wk =   0.0002500
        k(  800) = (  -0.0750000  -0.2500000   0.5000000), wk =   0.0002500
        k(  801) = (  -0.0750000  -0.2750000   0.5250000), wk =   0.0002500
        k(  802) = (  -0.0750000  -0.3000000   0.5500000), wk =   0.0002500
        k(  803) = (  -0.0750000  -0.3250000   0.5750000), wk =   0.0002500
        k(  804) = (  -0.0750000   0.6500000  -0.4000000), wk =   0.0002500
        k(  805) = (  -0.0750000   0.6250000  -0.3750000), wk =   0.0002500
        k(  806) = (  -0.1000000  -0.1000000   0.3750000), wk =   0.0001250
        k(  807) = (  -0.1000000  -0.1250000   0.4000000), wk =   0.0002500
        k(  808) = (  -0.1000000  -0.1500000   0.4250000), wk =   0.0002500
        k(  809) = (  -0.1000000  -0.1750000   0.4500000), wk =   0.0002500
        k(  810) = (  -0.1000000  -0.2000000   0.4750000), wk =   0.0002500
        k(  811) = (  -0.1000000  -0.2250000   0.5000000), wk =   0.0002500
        k(  812) = (  -0.1000000  -0.2500000   0.5250000), wk =   0.0002500
        k(  813) = (  -0.1000000  -0.2750000   0.5500000), wk =   0.0002500
        k(  814) = (  -0.1000000  -0.3000000   0.5750000), wk =   0.0002500
        k(  815) = (  -0.1000000   0.6750000  -0.4000000), wk =   0.0002500
        k(  816) = (  -0.1000000   0.6500000  -0.3750000), wk =   0.0002500
        k(  817) = (  -0.1250000  -0.1250000   0.4250000), wk =   0.0001250
        k(  818) = (  -0.1250000  -0.1500000   0.4500000), wk =   0.0002500
        k(  819) = (  -0.1250000  -0.1750000   0.4750000), wk =   0.0002500
        k(  820) = (  -0.1250000  -0.2000000   0.5000000), wk =   0.0002500
        k(  821) = (  -0.1250000  -0.2250000   0.5250000), wk =   0.0002500
        k(  822) = (  -0.1250000  -0.2500000   0.5500000), wk =   0.0002500
        k(  823) = (  -0.1250000  -0.2750000   0.5750000), wk =   0.0002500
        k(  824) = (  -0.1250000   0.7000000  -0.4000000), wk =   0.0002500
        k(  825) = (  -0.1250000   0.6750000  -0.3750000), wk =   0.0002500
        k(  826) = (  -0.1250000   0.6500000  -0.3500000), wk =   0.0002500
        k(  827) = (  -0.1500000  -0.1500000   0.4750000), wk =   0.0001250
        k(  828) = (  -0.1500000  -0.1750000   0.5000000), wk =   0.0002500
        k(  829) = (  -0.1500000  -0.2000000   0.5250000), wk =   0.0002500
        k(  830) = (  -0.1500000  -0.2250000   0.5500000), wk =   0.0002500
        k(  831) = (  -0.1500000  -0.2500000   0.5750000), wk =   0.0002500
        k(  832) = (  -0.1500000   0.7250000  -0.4000000), wk =   0.0002500
        k(  833) = (  -0.1500000   0.7000000  -0.3750000), wk =   0.0002500
        k(  834) = (  -0.1500000   0.6750000  -0.3500000), wk =   0.0002500
        k(  835) = (  -0.1750000   0.1750000   0.1750000), wk =   0.0001250
        k(  836) = (  -0.1750000  -0.1750000   0.5250000), wk =   0.0001250
        k(  837) = (  -0.1750000  -0.2000000   0.5500000), wk =   0.0002500
        k(  838) = (  -0.1750000  -0.2250000   0.5750000), wk =   0.0002500
        k(  839) = (  -0.1750000   0.7500000  -0.4000000), wk =   0.0002500
        k(  840) = (  -0.1750000   0.7250000  -0.3750000), wk =   0.0002500
        k(  841) = (  -0.1750000   0.7000000  -0.3500000), wk =   0.0002500
        k(  842) = (  -0.1750000   0.6750000  -0.3250000), wk =   0.0002500
        k(  843) = (  -0.2000000   0.2000000   0.1750000), wk =   0.0001250
        k(  844) = (  -0.2000000  -0.2000000   0.5750000), wk =   0.0001250
        k(  845) = (  -0.2000000   0.7750000  -0.4000000), wk =   0.0002500
        k(  846) = (  -0.2000000   0.7500000  -0.3750000), wk =   0.0002500
        k(  847) = (  -0.2000000   0.7250000  -0.3500000), wk =   0.0002500
        k(  848) = (  -0.2000000   0.7000000  -0.3250000), wk =   0.0002500
        k(  849) = (  -0.2250000   0.2250000   0.1750000), wk =   0.0001250
        k(  850) = (  -0.2250000   0.2000000   0.2000000), wk =   0.0002500
        k(  851) = (  -0.2250000   0.7750000  -0.3750000), wk =   0.0001250
        k(  852) = (  -0.2250000   0.7500000  -0.3500000), wk =   0.0002500
        k(  853) = (  -0.2250000   0.7250000  -0.3250000), wk =   0.0002500
        k(  854) = (  -0.2250000   0.7000000  -0.3000000), wk =   0.0002500
        k(  855) = (  -0.2500000   0.2500000   0.1750000), wk =   0.0001250
        k(  856) = (  -0.2500000   0.2250000   0.2000000), wk =   0.0002500
        k(  857) = (  -0.2500000   0.7500000  -0.3250000), wk =   0.0001250
        k(  858) = (  -0.2500000   0.7250000  -0.3000000), wk =   0.0002500
        k(  859) = (  -0.2750000   0.2750000   0.1750000), wk =   0.0001250
        k(  860) = (  -0.2750000   0.2500000   0.2000000), wk =   0.0002500
        k(  861) = (  -0.2750000   0.2250000   0.2250000), wk =   0.0002500
        k(  862) = (  -0.2750000   0.7250000  -0.2750000), wk =   0.0001250
        k(  863) = (  -0.3000000   0.3000000   0.1750000), wk =   0.0001250
        k(  864) = (  -0.3000000   0.2750000   0.2000000), wk =   0.0002500
        k(  865) = (  -0.3000000   0.2500000   0.2250000), wk =   0.0002500
        k(  866) = (  -0.3250000   0.3250000   0.1750000), wk =   0.0001250
        k(  867) = (  -0.3250000   0.3000000   0.2000000), wk =   0.0002500
        k(  868) = (  -0.3250000   0.2750000   0.2250000), wk =   0.0002500
        k(  869) = (  -0.3250000   0.2500000   0.2500000), wk =   0.0002500
        k(  870) = (  -0.3500000   0.3500000   0.1750000), wk =   0.0001250
        k(  871) = (  -0.3500000   0.3250000   0.2000000), wk =   0.0002500
        k(  872) = (  -0.3500000   0.3000000   0.2250000), wk =   0.0002500
        k(  873) = (  -0.3500000   0.2750000   0.2500000), wk =   0.0002500
        k(  874) = (  -0.3750000   0.3750000   0.1750000), wk =   0.0001250
        k(  875) = (  -0.3750000   0.3500000   0.2000000), wk =   0.0002500
        k(  876) = (  -0.3750000   0.3250000   0.2250000), wk =   0.0002500
[...]
     0.0000   0.0000   0.0000   0.0000

          k =-0.0500 0.8250 0.0000     band energies (ev):

     9.1602   9.1846  11.1957  11.3675  13.0237  13.0988  13.5109  15.4290
    15.5018  16.0647  20.2345  20.9979  24.0451  24.4688  24.6422  25.0126
    31.6241  32.3317  32.3851  33.1372

     occupation numbers 
     1.0000   1.0000   1.0000   1.0000   0.9952   0.9887   0.7146   0.0000
     0.0000   0.0000   0.0000   0.0000   0.0000   0.0000   0.0000   0.0000
     0.0000   0.0000   0.0000   0.0000

          k = 0.8250 0.0000-0.0500     band energies (ev):

     9.1604   9.1844  11.1957  11.3675  13.0214  13.1015  13.5104  15.4263
    15.5048  16.0644  20.2346  20.9979  24.0451  24.4687  24.6423  25.0126
    31.6243  32.3315  32.3853  33.1370

     occupation numbers 
     1.0000   1.0000   1.0000   1.0000   0.9954   0.9884   0.7154   0.0000
     0.0000   0.0000   0.0000   0.0000   0.0000   0.0000   0.0000   0.0000
     0.0000   0.0000   0.0000   0.0000

          k =-0.0750 0.8500 0.0000     band energies (ev):

     9.1302   9.1456  11.2038  11.3049  13.0381  13.1585  13.5972  15.4546
    15.5745  16.1642  20.9491  21.6399  23.3445  23.9029  24.3389  24.7926
    31.6443  32.4232  32.7153  33.4284

     occupation numbers 
     1.0000   1.0000   1.0000   1.0000   0.9943   0.9789   0.5824   0.0000
     0.0000   0.0000   0.0000   0.0000   0.0000   0.0000   0.0000   0.0000
     0.0000   0.0000   0.0000   0.0000

          k = 0.8500 0.0000-0.0750     band energies (ev):

     9.1306   9.1453  11.2038  11.3049  13.0358  13.1616  13.5965  15.4517
    15.5778  16.1637  20.9493  21.6396  23.3448  23.9026  24.3388  24.7927
    31.6445  32.4233  32.7151  33.4282

     occupation numbers 
     1.0000   1.0000   1.0000   1.0000   0.9945   0.9783   0.5837   0.0000
     0.0000   0.0000   0.0000   0.0000   0.0000   0.0000   0.0000   0.0000
     0.0000   0.0000   0.0000   0.0000

          k =-0.1000 0.8750 0.0000     band energies (ev):

     9.1128   9.1282  11.2180  11.2628  13.0427  13.1886  13.6448  15.4639
    15.6109  16.2204  21.6277  22.2500  22.6643  23.2780  24.2315  24.6797
    31.6506  32.4396  33.0901  33.6820

     occupation numbers 
     1.0000   1.0000   1.0000   1.0000   0.9940   0.9717   0.5041   0.0000
     0.0000   0.0000   0.0000   0.0000   0.0000   0.0000   0.0000   0.0000
     0.0000   0.0000   0.0000   0.0000

          k = 0.8750 0.0000-0.1000     band energies (ev):

     9.1131   9.1278  11.2177  11.2631  13.0401  13.1922  13.6439  15.4607
    15.6148  16.2198  21.6289  22.2450  22.6691  23.2770  24.2311  24.6800
    31.6509  32.4399  33.0899  33.6817

     occupation numbers 
     1.0000   1.0000   1.0000   1.0000   0.9942   0.9708   0.5057   0.0000
     0.0000   0.0000   0.0000   0.0000   0.0000   0.0000   0.0000   0.0000
     0.0000   0.0000   0.0000   0.0000

          k =-0.0250 0.8250-0.0250     band energies (ev):

     9.1503   9.1755  11.1836  11.3621  13.0550  13.1429  13.4765  15.4589
    15.5615  16.0266  20.1983  20.9559  24.3277  24.3566  24.8518  24.8775
    31.5991  32.1390  32.3508  32.9856

     occupation numbers 
     1.0000   1.0000   1.0000   1.0000   0.9931   0.9820   0.7612   0.0000
     0.0000   0.0000   0.0000   0.0000   0.0000   0.0000   0.0000   0.0000
     0.0000   0.0000   0.0000   0.0000

          k =-0.0500 0.8500-0.0250     band energies (ev):

     9.1127   9.1250  11.1802  11.2935  13.0851  13.2401  13.5539  15.5017
    15.6861  16.1133  20.8814  21.5619  23.7625  24.0853  24.3091  24.5941
    31.6706  32.3205  32.4254  33.1183

     occupation numbers 
     1.0000   1.0000   1.0000   1.0000   0.9903   0.9548   0.6510   0.0000
     0.0000   0.0000   0.0000   0.0000   0.0000   0.0000   0.0000   0.0000
     0.0000   0.0000   0.0000   0.0000

          k = 0.8500-0.0250-0.0500     band energies (ev):

     9.1128   9.1248  11.1802  11.2935  13.0843  13.2412  13.5535  15.5009
    15.6871  16.1130  20.8815  21.5618  23.7627  24.0851  24.3091  24.5942
    31.6707  32.3203  32.4255  33.1182

     occupation numbers 
     1.0000   1.0000   1.0000   1.0000   0.9904   0.9543   0.6517   0.0000
     0.0000   0.0000   0.0000   0.0000   0.0000   0.0000   0.0000   0.0000
     0.0000   0.0000   0.0000   0.0000

          k =-0.0750 0.8750-0.0250     band energies (ev):

     9.0878   9.0960  11.1848  11.2443  13.0973  13.2967  13.6122  15.5208
    15.7591  16.1803  21.5729  22.1860  23.1155  23.6418  23.9859  24.4241
    31.7137  32.4820  32.6253  33.3138

     occupation numbers 
     1.0000   1.0000   1.0000   1.0000   0.9889   0.9276   0.5579   0.0000
     0.0000   0.0000   0.0000   0.0000   0.0000   0.0000   0.0000   0.0000
     0.0000   0.0000   0.0000   0.0000

          k = 0.8750-0.0250-0.0750     band energies (ev):

     9.0881   9.0957  11.1847  11.2444  13.0962  13.2987  13.6114  15.5195
    15.7609  16.1797  21.5733  22.1848  23.1170  23.6410  23.9856  24.4244
    31.7139  32.4822  32.6251  33.3136

     occupation numbers 
     1.0000   1.0000   1.0000   1.0000   0.9890   0.9264   0.5593   0.0000
     0.0000   0.0000   0.0000   0.0000   0.0000   0.0000   0.0000   0.0000
     0.0000   0.0000   0.0000   0.0000

          k = 0.9000-0.1000-0.0250     band energies (ev):

     9.0784   9.0873  11.1930  11.2211  13.1006  13.3152  13.6336  15.5261
    15.7829  16.2052  22.0739  22.6216  22.6335  23.2067  23.9271  24.3665
    31.7252  32.5002  32.8165  33.4212

     occupation numbers 
     1.0000   1.0000   1.0000   1.0000   0.9885   0.9163   0.5227   0.0000
     0.0000   0.0000   0.0000   0.0000   0.0000   0.0000   0.0000   0.0000
     0.0000   0.0000   0.0000   0.0000

          k =-0.0500 0.8750-0.0500     band energies (ev):

     9.0804   9.0842  11.1734  11.2384  13.1049  13.3624  13.5831  15.5266
    15.8457  16.1441  21.5456  22.1544  23.5014  23.6367  24.0095  24.1409
    31.8295  32.3684  32.5585  33.1242

     occupation numbers 
     1.0000   1.0000   1.0000   1.0000   0.9879   0.8819   0.6052   0.0000
     0.0000   0.0000   0.0000   0.0000   0.0000   0.0000   0.0000   0.0000
     0.0000   0.0000   0.0000   0.0000

          k = 0.9250-0.1000-0.0500     band energies (ev):

     9.0622   9.0654  11.1768  11.2033  13.1124  13.4314  13.5946  15.5365
    15.9379  16.1534  22.1891  22.7324  22.9642  23.4289  23.5651  23.9827
    31.9462  32.4834  32.6718  33.1480

     occupation numbers 
     1.0000   1.0000   1.0000   1.0000   0.9869   0.8153   0.5868   0.0000
     0.0000   0.0000   0.0000   0.0000   0.0000   0.0000   0.0000   0.0000
     0.0000   0.0000   0.0000   0.0000

          k =-0.1000-0.0500 0.9250     band energies (ev):

     9.0626   9.0651  11.1765  11.2036  13.1120  13.4327  13.5937  15.5361
    15.9389  16.1528  22.1906  22.7215  22.9774  23.4257  23.5635  23.9837
    31.9464  32.4833  32.6720  33.1478

     occupation numbers 
     1.0000   1.0000   1.0000   1.0000   0.9870   0.8139   0.5881   0.0000
     0.0000   0.0000   0.0000   0.0000   0.0000   0.0000   0.0000   0.0000
     0.0000   0.0000   0.0000   0.0000

          k = 0.0000 0.8250 0.0000     band energies (ev):

     9.1395   9.1671  11.1715  11.3564  13.1373  13.1410  13.4380  15.5552
    15.5583  15.9864  20.1604  20.9117  24.4203  24.4203  24.9275  24.9275
    31.4816  32.0177  32.2523  32.8815

     occupation numbers 
     1.0000   1.0000   1.0000   1.0000   0.9830   0.9824   0.8079   0.0000
     0.0000   0.0000   0.0000   0.0000   0.0000   0.0000   0.0000   0.0000
     0.0000   0.0000   0.0000   0.0000

          k =-0.0250 0.8500 0.0000     band energies (ev):

     9.0919   9.1068  11.1565  11.2809  13.2156  13.2428  13.5084  15.6621
    15.6877  16.0638  20.8048  21.4720  24.0126  24.1255  24.5045  24.6034
    31.4877  32.0635  32.2658  32.9097

     occupation numbers 
     1.0000   1.0000   1.0000   1.0000   0.9637   0.9537   0.7182   0.0000
     0.0000   0.0000   0.0000   0.0000   0.0000   0.0000   0.0000   0.0000
     0.0000   0.0000   0.0000   0.0000

          k = 0.8500 0.0000-0.0250     band energies (ev):

     9.0919   9.1068  11.1565  11.2809  13.2134  13.2453  13.5081  15.6595
    15.6904  16.0636  20.8048  21.4719  24.0127  24.1254  24.5045  24.6034
    31.4877  32.0635  32.2658  32.9096

     occupation numbers 
     1.0000   1.0000   1.0000   1.0000   0.9644   0.9527   0.7186   0.0000
     0.0000   0.0000   0.0000   0.0000   0.0000   0.0000   0.0000   0.0000
     0.0000   0.0000   0.0000   0.0000

          k =-0.0500 0.8750 0.0000     band energies (ev):

     9.0590   9.0661  11.1506  11.2242  13.2429  13.3123  13.5865  15.7065
    15.7762  16.1522  21.4657  22.0608  23.4835  23.8750  24.0331  24.3745
    31.5442  32.2306  32.3282  33.0067

     occupation numbers 
     1.0000   1.0000   1.0000   1.0000   0.9537   0.9182   0.5997   0.0000
     0.0000   0.0000   0.0000   0.0000   0.0000   0.0000   0.0000   0.0000
     0.0000   0.0000   0.0000   0.0000

          k = 0.8750 0.0000-0.0500     band energies (ev):

     9.0592   9.0659  11.1506  11.2242  13.2404  13.3155  13.5858  15.7034
    15.7797  16.1517  21.4659  22.0604  23.4842  23.8741  24.0331  24.3748
    31.5444  32.2304  32.3284  33.0066

     occupation numbers 
     1.0000   1.0000   1.0000   1.0000   0.9547   0.9161   0.6008   0.0000
     0.0000   0.0000   0.0000   0.0000   0.0000   0.0000   0.0000   0.0000
     0.0000   0.0000   0.0000   0.0000

          k =-0.0750 0.9000 0.0000     band energies (ev):

     9.0413   9.0467  11.1545  11.1884  13.2507  13.3474  13.6334  15.7211
    15.8209  16.2073  22.1014  22.6317  22.9039  23.4043  23.8569  24.2566
    31.5786  32.3727  32.4473  33.1173

     occupation numbers 
     1.0000   1.0000   1.0000   1.0000   0.9504   0.8938   0.5230   0.0000
     0.0000   0.0000   0.0000   0.0000   0.0000   0.0000   0.0000   0.0000
     0.0000   0.0000   0.0000   0.0000

          k = 0.9000 0.0000-0.0750     band energies (ev):

     9.0417   9.0463  11.1541  11.1887  13.2477  13.3516  13.6323  15.7173
    15.8254  16.2065  22.1033  22.6211  22.9154  23.4018  23.8558  24.2573
    31.5789  32.3728  32.4471  33.1171

     occupation numbers 
     1.0000   1.0000   1.0000   1.0000   0.9517   0.8905   0.5248   0.0000
     0.0000   0.0000   0.0000   0.0000   0.0000   0.0000   0.0000   0.0000
     0.0000   0.0000   0.0000   0.0000

          k =-0.0250 0.8750-0.0250     band energies (ev):

     9.0492   9.0562  11.1390  11.2175  13.2713  13.3573  13.5592  15.7356
    15.8383  16.1206  21.4277  22.0160  23.7476  23.7812  24.2085  24.2407
    31.5100  32.0678  32.2896  32.8847

     occupation numbers 
     1.0000   1.0000   1.0000   1.0000   0.9410   0.8861   0.6429   0.0000
     0.0000   0.0000   0.0000   0.0000   0.0000   0.0000   0.0000   0.0000
     0.0000   0.0000   0.0000   0.0000

          k =-0.0500 0.9000-0.0250     band energies (ev):

     9.0229   9.0257  11.1331  11.1736  13.2902  13.4293  13.6059  15.7638
    15.9346  16.1731  22.0482  22.5684  23.2850  23.5944  23.7769  24.0502
    31.5950  32.1397  32.3710  32.8844

     occupation numbers 
     1.0000   1.0000   1.0000   1.0000   0.9312   0.8176   0.5683   0.0000
     0.0000   0.0000   0.0000   0.0000   0.0000   0.0000   0.0000   0.0000
     0.0000   0.0000   0.0000   0.0000

          k = 0.9000-0.0250-0.0500     band energies (ev):

     9.0232   9.0255  11.1330  11.1737  13.2893  13.4309  13.6051  15.7628
    15.9361  16.1726  22.0487  22.5670  23.2881  23.5920  23.7765  24.0509
    31.5951  32.1395  32.3711  32.8843

     occupation numbers 
     1.0000   1.0000   1.0000   1.0000   0.9317   0.8158   0.5695   0.0000
     0.0000   0.0000   0.0000   0.0000   0.0000   0.0000   0.0000   0.0000
     0.0000   0.0000   0.0000   0.0000

          k = 0.9250-0.0750-0.0250     band energies (ev):

     9.0135   9.0161  11.1359  11.1540  13.2949  13.4529  13.6243  15.7712
    15.9665  16.1943  22.5181  22.8599  22.9807  23.3310  23.6041  23.9892
    31.6349  32.2039  32.4150  32.8898

     occupation numbers 
     1.0000   1.0000   1.0000   1.0000   0.9286   0.7906   0.5380   0.0000
     0.0000   0.0000   0.0000   0.0000   0.0000   0.0000   0.0000   0.0000
     0.0000   0.0000   0.0000   0.0000

          k = 0.9500-0.0750-0.0500     band energies (ev):

     9.0046   9.0053  11.1291  11.1428  13.3009  13.5209  13.5981  15.7775
    16.0590  16.1581  22.5970  23.0123  23.1465  23.2823  23.5619  23.7230
    31.7619  32.0093  32.5096  32.7316

     occupation numbers 
     1.0000   1.0000   1.0000   1.0000   0.9251   0.7004   0.5810   0.0000
     0.0000   0.0000   0.0000   0.0000   0.0000   0.0000   0.0000   0.0000
     0.0000   0.0000   0.0000   0.0000

          k = 0.0000 0.8750 0.0000     band energies (ev):

     9.0387   9.0469  11.1274  11.2106  13.3495  13.3561  13.5288  15.8312
    15.8364  16.0879  21.3871  21.9679  23.8334  23.8340  24.2779  24.2780
    31.3989  31.9611  32.1971  32.7992

     occupation numbers 
     1.0000   1.0000   1.0000   1.0000   0.8922   0.8870   0.6889   0.0000
     0.0000   0.0000   0.0000   0.0000   0.0000   0.0000   0.0000   0.0000
     0.0000   0.0000   0.0000   0.0000

          k =-0.0250 0.9000 0.0000     band energies (ev):

     9.0025   9.0061  11.1105  11.1589  13.4050  13.4340  13.5827  15.9114
    15.9394  16.1476  21.9679  22.4737  23.5178  23.6273  23.9494  24.0442
    31.4180  31.9326  32.2189  32.7289

     occupation numbers 
     1.0000   1.0000   1.0000   1.0000   0.8431   0.8125   0.6058   0.0000
     0.0000   0.0000   0.0000   0.0000   0.0000   0.0000   0.0000   0.0000
     0.0000   0.0000   0.0000   0.0000

          k = 0.9000 0.0000-0.0250     band energies (ev):

     9.0026   9.0061  11.1104  11.1589  13.4026  13.4369  13.5822  15.9084
    15.9427  16.1472  21.9680  22.4735  23.5197  23.6255  23.9490  24.0447
    31.4181  31.9325  32.2189  32.7289

     occupation numbers 
     1.0000   1.0000   1.0000   1.0000   0.8455   0.8091   0.6067   0.0000
     0.0000   0.0000   0.0000   0.0000   0.0000   0.0000   0.0000   0.0000
     0.0000   0.0000   0.0000   0.0000

          k =-0.0500 0.9250 0.0000     band energies (ev):

     8.9841   8.9857  11.1067  11.1277  13.4182  13.4735  13.6265  15.9340
    15.9920  16.1988  22.5132  22.9528  23.1024  23.4676  23.6092  23.9208
    31.4812  31.9395  32.2818  32.6765

     occupation numbers 
     1.0000   1.0000   1.0000   1.0000   0.8296   0.7650   0.5345   0.0000
     0.0000   0.0000   0.0000   0.0000   0.0000   0.0000   0.0000   0.0000
     0.0000   0.0000   0.0000   0.0000

          k = 0.9250 0.0000-0.0500     band energies (ev):

     8.9845   8.9853  11.1064  11.1280  13.4144  13.4787  13.6250  15.9295
    15.9977  16.1976  22.5161  22.9290  23.1320  23.4583  23.6080  23.9225
    31.4815  31.9393  32.2819  32.6763

     occupation numbers 
     1.0000   1.0000   1.0000   1.0000   0.8335   0.7584   0.5369   0.0000
     0.0000   0.0000   0.0000   0.0000   0.0000   0.0000   0.0000   0.0000
     0.0000   0.0000   0.0000   0.0000

          k =-0.0250 0.9250-0.0250     band energies (ev):

     8.9743   8.9754  11.0961  11.1197  13.4401  13.5174  13.6104  15.9587
    16.0539  16.1783  22.4807  22.9114  23.3500  23.3877  23.7489  23.7873
    31.4526  31.8152  32.2508  32.5843

     occupation numbers 
     1.0000   1.0000   1.0000   1.0000   0.8055   0.7054   0.5610   0.0000
     0.0000   0.0000   0.0000   0.0000   0.0000   0.0000   0.0000   0.0000
     0.0000   0.0000   0.0000   0.0000

          k = 0.9500-0.0500-0.0250     band energies (ev):

     8.9646   8.9653  11.0953  11.1024  13.4467  13.5491  13.6217  15.9684
    16.0987  16.1898  22.8533  23.0699  23.1838  23.3917  23.4838  23.7091
    31.5248  31.7291  32.3158  32.4862

     occupation numbers 
     1.0000   1.0000   1.0000   1.0000   0.7978   0.6584   0.5423   0.0000
     0.0000   0.0000   0.0000   0.0000   0.0000   0.0000   0.0000   0.0000
     0.0000   0.0000   0.0000   0.0000

          k = 0.0000 0.9250 0.0000     band energies (ev):

     8.9640   8.9655  11.0848  11.1120  13.5031  13.5180  13.5971  16.0421
    16.0538  16.1625  22.4378  22.8632  23.4268  23.4332  23.8140  23.8150
    31.3454  31.7403  32.1620  32.5284

     occupation numbers 
     1.0000   1.0000   1.0000   1.0000   0.7256   0.7045   0.5826   0.0000
     0.0000   0.0000   0.0000   0.0000   0.0000   0.0000   0.0000   0.0000
     0.0000   0.0000   0.0000   0.0000

          k =-0.0250 0.9500 0.0000     band energies (ev):

     8.9445   8.9450  11.0750  11.0849  13.5304  13.5609  13.6284  16.0825
    16.1126  16.1989  22.8385  23.1642  23.2265  23.3775  23.6017  23.6902
    31.3748  31.5849  32.1898  32.3708

     occupation numbers 
     1.0000   1.0000   1.0000   1.0000   0.6865   0.6403   0.5314   0.0000
     0.0000   0.0000   0.0000   0.0000   0.0000   0.0000   0.0000   0.0000
     0.0000   0.0000   0.0000   0.0000

          k = 0.9500 0.0000-0.0250     band energies (ev):

     8.9446   8.9449  11.0748  11.0851  13.5273  13.5655  13.6268  16.0785
    16.1182  16.1973  22.8419  23.1233  23.3131  23.3285  23.5969  23.6949
    31.3749  31.5848  32.1899  32.3707

     occupation numbers 
     1.0000   1.0000   1.0000   1.0000   0.6910   0.6331   0.5340   0.0000
     0.0000   0.0000   0.0000   0.0000   0.0000   0.0000   0.0000   0.0000
     0.0000   0.0000   0.0000   0.0000

          k = 0.0000 0.9750 0.0000     band energies (ev):

     8.9243   8.9246  11.0597  11.0623  13.5743  13.6055  13.6439  16.1441
    16.1748  16.2159  23.0361  23.1642  23.2662  23.4494  23.5754  23.5947
    31.3191  31.3829  32.1449  32.1987

     occupation numbers 
     1.0000   1.0000   1.0000   1.0000   0.6193   0.5690   0.5057   0.0000
     0.0000   0.0000   0.0000   0.0000   0.0000   0.0000   0.0000   0.0000
     0.0000   0.0000   0.0000   0.0000

     the Fermi energy is    13.6473 ev

     Writing output data file Fe_nscf_e70_DbGd_nb20_so.save

     init_run     :      0.72s CPU      0.75s WALL (       1 calls)
     electrons    :   1658.32s CPU   1684.35s WALL (       1 calls)

     Called by init_run:
     wfcinit      :      0.00s CPU      0.00s WALL (       1 calls)
     potinit      :      0.05s CPU      0.05s WALL (       1 calls)

     Called by electrons:
     c_bands      :   1658.09s CPU   1684.12s WALL (       1 calls)
     v_of_rho     :      0.04s CPU      0.04s WALL (       1 calls)
     v_h          :      0.00s CPU      0.00s WALL (       1 calls)
     v_xc         :      0.04s CPU      0.04s WALL (       1 calls)

     Called by c_bands:
     init_us_2    :      1.31s CPU      2.08s WALL (    4520 calls)
     cegterg      :   1511.63s CPU   1519.69s WALL (    4631 calls)

     Called by sum_band:

     Called by *egterg:
     h_psi        :   1098.72s CPU   1105.75s WALL (   73080 calls)
     g_psi        :      8.46s CPU      8.49s WALL (   63929 calls)
     cdiaghg      :    112.89s CPU    112.88s WALL (   68449 calls)
     cegterg:over :    170.45s CPU    171.15s WALL (   63929 calls)
     cegterg:upda :    142.10s CPU    142.50s WALL (   63929 calls)
     cegterg:last :     71.52s CPU     71.67s WALL (   13787 calls)

     Called by h_psi:
     h_psi:vloc   :   1019.63s CPU   1026.37s WALL (   73080 calls)
     h_psi:vnl    :     73.93s CPU     74.04s WALL (   73080 calls)
     add_vuspsi   :     36.79s CPU     36.95s WALL (   73080 calls)

     General routines
     calbec       :     37.10s CPU     36.87s WALL (   73080 calls)
     fft          :      0.01s CPU      0.01s WALL (      23 calls)
     fftw         :    910.05s CPU    911.84s WALL ( 3509952 calls)
     davcio       :      3.43s CPU     39.79s WALL (    9040 calls)

     Parallel routines
     fft_scatter  :     33.24s CPU     41.76s WALL ( 3509975 calls)

     PWSCF        : 28m 3.43s CPU    29m12.31s WALL


   This run was terminated on:  17:22:12  15Jul2015            

=------------------------------------------------------------------------------=
   JOB DONE.
=------------------------------------------------------------------------------=
