
     Program PWSCF v.5.0.2 (svn rev. 9656) starts on 30Jun2015 at 23:45:25 

     This program is part of the open-source Quantum ESPRESSO suite
     for quantum simulation of materials; please cite
         "P. Giannozzi et al., J. Phys.:Condens. Matter 21 395502 (2009);
          URL http://www.quantum-espresso.org", 
     in publications or presentations arising from this work. More details at
     http://www.quantum-espresso.org/quote.php

     Parallel version (MPI), running on     1 processors

     Current dimensions of program PWSCF are:
     Max number of different atomic species (ntypx) = 10
     Max number of k-points (npk) =  40000
     Max angular momentum in pseudopotentials (lmaxx) =  3
     Waiting for input...
     Reading input from standard input

     Atomic positions and unit cell read from directory:
     ./Fe_nscf_e70_k10s3_nb20_so.save/


     Fixed quantization axis for GGA:     0.000000    0.000000    1.000000

     Subspace diagonalization in iterative solution of the eigenvalue problem:
     a serial algorithm will be used


     G-vector sticks info
     --------------------
     sticks:   dense  smooth     PW     G-vecs:    dense   smooth      PW
     Sum         467     467    151                 6363     6363    1157

     Generating pointlists ...
     new r_m :   0.3572 (alat units)  1.9362 (a.u.) for type    1


     bravais-lattice index     =            3
     lattice parameter (alat)  =       5.4200  a.u.
     unit-cell volume          =      79.6100 (a.u.)^3
     number of atoms/cell      =            1
     number of atomic types    =            1
     number of electrons       =         8.00
     number of Kohn-Sham states=           20
     kinetic-energy cutoff     =      70.0000  Ry
     charge density cutoff     =     280.0000  Ry
     Exchange-correlation      = PBE ( 1 4 3 4 0)
     EXX-fraction              =        0.00
     Noncollinear calculation with spin-orbit


     celldm(1)=   5.420000  celldm(2)=   0.000000  celldm(3)=   0.000000
     celldm(4)=   0.000000  celldm(5)=   0.000000  celldm(6)=   0.000000

     crystal axes: (cart. coord. in units of alat)
               a(1) = (   0.500000   0.500000   0.500000 )  
               a(2) = (  -0.500000   0.500000   0.500000 )  
               a(3) = (  -0.500000  -0.500000   0.500000 )  

     reciprocal axes: (cart. coord. in units 2 pi/alat)
               b(1) = (  1.000000  0.000000  1.000000 )  
               b(2) = ( -1.000000  1.000000  0.000000 )  
               b(3) = (  0.000000 -1.000000  1.000000 )  


     PseudoPot. # 1 for Fe read from file:
     ./Fe.rel-pbe-n-nc.UPF
     MD5 check sum: 94258d60e67ccf79570366bad73e55f4
     Pseudo is Norm-conserving + core correction, Zval =  8.0
     Generated using "atomic" code by A. Dal Corso  v.5.0.2 svn rev. 10042M
     Using radial grid of 1191 points,  4 beta functions with: 
                l(1) =   1
                l(2) =   1
                l(3) =   2
                l(4) =   2

     atomic species   valence    mass     pseudopotential
        Fe             8.00    55.84500     Fe( 1.00)

     16 Sym. Ops., with inversion, found


                                    s                        frac. trans.

      isym =  1     identity                                     

 Time Reversal            0
 cryst.   s( 1) = (     1          0          0      )
                  (     0          1          0      )
                  (     0          0          1      )

 cart.    s( 1) = (  1.0000000  0.0000000  0.0000000 )
                  (  0.0000000  1.0000000  0.0000000 )
                  (  0.0000000  0.0000000  1.0000000 )


      isym =  2     180 deg rotation - cart. axis [0,0,1]        

 Time Reversal            0
 cryst.   s( 2) = (     0          0          1      )
                  (     1         -1          1      )
                  (     1          0          0      )

 cart.    s( 2) = ( -1.0000000  0.0000000  0.0000000 )
                  (  0.0000000 -1.0000000  0.0000000 )
                  (  0.0000000  0.0000000  1.0000000 )


      isym =  3     180 deg rotation - cart. axis [0,1,0]        

 Time Reversal            1
 cryst.   s( 3) = (    -1          1         -1      )
                  (     0          0         -1      )
                  (     0         -1          0      )

 cart.    s( 3) = ( -1.0000000  0.0000000  0.0000000 )
                  (  0.0000000  1.0000000  0.0000000 )
                  (  0.0000000  0.0000000 -1.0000000 )


      isym =  4     180 deg rotation - cart. axis [1,0,0]        

 Time Reversal            1
 cryst.   s( 4) = (     0         -1          0      )
                  (    -1          0          0      )
                  (    -1          1         -1      )

 cart.    s( 4) = (  1.0000000  0.0000000  0.0000000 )
                  (  0.0000000 -1.0000000  0.0000000 )
                  (  0.0000000  0.0000000 -1.0000000 )


      isym =  5     180 deg rotation - cart. axis [1,1,0]        

 Time Reversal            1
 cryst.   s( 5) = (     0          0         -1      )
                  (     0         -1          0      )
                  (    -1          0          0      )

 cart.    s( 5) = (  0.0000000  1.0000000  0.0000000 )
                  (  1.0000000  0.0000000  0.0000000 )
                  (  0.0000000  0.0000000 -1.0000000 )


      isym =  6     180 deg rotation - cart. axis [1,-1,0]       

 Time Reversal            1
 cryst.   s( 6) = (    -1          0          0      )
                  (    -1          1         -1      )
                  (     0          0         -1      )

 cart.    s( 6) = (  0.0000000 -1.0000000  0.0000000 )
                  ( -1.0000000  0.0000000  0.0000000 )
                  (  0.0000000  0.0000000 -1.0000000 )


      isym =  7      90 deg rotation - cart. axis [0,0,-1]       

 Time Reversal            0
 cryst.   s( 7) = (     1         -1          1      )
                  (     1          0          0      )
                  (     0          1          0      )

 cart.    s( 7) = (  0.0000000  1.0000000  0.0000000 )
                  ( -1.0000000  0.0000000  0.0000000 )
                  (  0.0000000  0.0000000  1.0000000 )


      isym =  8      90 deg rotation - cart. axis [0,0,1]        

 Time Reversal            0
 cryst.   s( 8) = (     0          1          0      )
                  (     0          0          1      )
                  (     1         -1          1      )

 cart.    s( 8) = (  0.0000000 -1.0000000  0.0000000 )
                  (  1.0000000  0.0000000  0.0000000 )
                  (  0.0000000  0.0000000  1.0000000 )


      isym =  9     inversion                                    

 Time Reversal            0
 cryst.   s( 9) = (    -1          0          0      )
                  (     0         -1          0      )
                  (     0          0         -1      )

 cart.    s( 9) = ( -1.0000000  0.0000000  0.0000000 )
                  (  0.0000000 -1.0000000  0.0000000 )
                  (  0.0000000  0.0000000 -1.0000000 )


      isym = 10     inv. 180 deg rotation - cart. axis [0,0,1]   

 Time Reversal            0
 cryst.   s(10) = (     0          0         -1      )
                  (    -1          1         -1      )
                  (    -1          0          0      )

 cart.    s(10) = (  1.0000000  0.0000000  0.0000000 )
                  (  0.0000000  1.0000000  0.0000000 )
                  (  0.0000000  0.0000000 -1.0000000 )


      isym = 11     inv. 180 deg rotation - cart. axis [0,1,0]   

 Time Reversal            1
 cryst.   s(11) = (     1         -1          1      )
                  (     0          0          1      )
                  (     0          1          0      )

 cart.    s(11) = (  1.0000000  0.0000000  0.0000000 )
                  (  0.0000000 -1.0000000  0.0000000 )
                  (  0.0000000  0.0000000  1.0000000 )


      isym = 12     inv. 180 deg rotation - cart. axis [1,0,0]   

 Time Reversal            1
 cryst.   s(12) = (     0          1          0      )
                  (     1          0          0      )
                  (     1         -1          1      )

 cart.    s(12) = ( -1.0000000  0.0000000  0.0000000 )
                  (  0.0000000  1.0000000  0.0000000 )
                  (  0.0000000  0.0000000  1.0000000 )


      isym = 13     inv. 180 deg rotation - cart. axis [1,1,0]   

 Time Reversal            1
 cryst.   s(13) = (     0          0          1      )
                  (     0          1          0      )
                  (     1          0          0      )

 cart.    s(13) = (  0.0000000 -1.0000000  0.0000000 )
                  ( -1.0000000  0.0000000  0.0000000 )
                  (  0.0000000  0.0000000  1.0000000 )


      isym = 14     inv. 180 deg rotation - cart. axis [1,-1,0]  

 Time Reversal            1
 cryst.   s(14) = (     1          0          0      )
                  (     1         -1          1      )
                  (     0          0          1      )

 cart.    s(14) = (  0.0000000  1.0000000  0.0000000 )
                  (  1.0000000  0.0000000  0.0000000 )
                  (  0.0000000  0.0000000  1.0000000 )


      isym = 15     inv.  90 deg rotation - cart. axis [0,0,-1]  

 Time Reversal            0
 cryst.   s(15) = (    -1          1         -1      )
                  (    -1          0          0      )
                  (     0         -1          0      )

 cart.    s(15) = (  0.0000000 -1.0000000  0.0000000 )
                  (  1.0000000  0.0000000  0.0000000 )
                  (  0.0000000  0.0000000 -1.0000000 )


      isym = 16     inv.  90 deg rotation - cart. axis [0,0,1]   

 Time Reversal            0
 cryst.   s(16) = (     0         -1          0      )
                  (     0          0         -1      )
                  (    -1          1         -1      )

 cart.    s(16) = (  0.0000000  1.0000000  0.0000000 )
                  ( -1.0000000  0.0000000  0.0000000 )
                  (  0.0000000  0.0000000 -1.0000000 )


     the magnetic double point group is D_4h(4/mmm) [C_4h (4/m) ]
     using the double point group C_4h (4/m) 
     there are 16 classes and  8 irreducible representations
     the character table:

       E     -E    C4    -C4   C4^2  -C4^2 C4^3  -C4^3 i     -i    S4^3  -S4^3
                                                                              
G_5+   1.00 -1.00  0.71 -0.71  0.00  0.00  0.71 -0.71  1.00 -1.00  0.71 -0.71
G_6+   1.00 -1.00  0.71 -0.71  0.00  0.00  0.71 -0.71  1.00 -1.00  0.71 -0.71
G_7+   1.00 -1.00 -0.71  0.71  0.00  0.00 -0.71  0.71  1.00 -1.00 -0.71  0.71
G_8+   1.00 -1.00 -0.71  0.71  0.00  0.00 -0.71  0.71  1.00 -1.00 -0.71  0.71
G_5-   1.00 -1.00  0.71 -0.71  0.00  0.00  0.71 -0.71 -1.00  1.00 -0.71  0.71
G_6-   1.00 -1.00  0.71 -0.71  0.00  0.00  0.71 -0.71 -1.00  1.00 -0.71  0.71
G_7-   1.00 -1.00 -0.71  0.71  0.00  0.00 -0.71  0.71 -1.00  1.00  0.71 -0.71
G_8-   1.00 -1.00 -0.71  0.71  0.00  0.00 -0.71  0.71 -1.00  1.00  0.71 -0.71

       s_h   -s_h  S4    -S4  
                              
G_5+   0.00  0.00  0.71 -0.71
G_6+   0.00  0.00  0.71 -0.71
G_7+   0.00  0.00 -0.71  0.71
G_8+   0.00  0.00 -0.71  0.71
G_5-   0.00  0.00 -0.71  0.71
G_6-   0.00  0.00 -0.71  0.71
G_7-   0.00  0.00  0.71 -0.71
G_8-   0.00  0.00  0.71 -0.71

     imaginary part

       E     -E    C4    -C4   C4^2  -C4^2 C4^3  -C4^3 i     -i    S4^3  -S4^3
                                                                              
G_5+   0.00  0.00  0.71 -0.71  1.00 -1.00 -0.71  0.71  0.00  0.00  0.71 -0.71
G_6+   0.00  0.00 -0.71  0.71 -1.00  1.00  0.71 -0.71  0.00  0.00 -0.71  0.71
G_7+   0.00  0.00 -0.71  0.71  1.00 -1.00  0.71 -0.71  0.00  0.00 -0.71  0.71
G_8+   0.00  0.00  0.71 -0.71 -1.00  1.00 -0.71  0.71  0.00  0.00  0.71 -0.71
G_5-   0.00  0.00  0.71 -0.71  1.00 -1.00 -0.71  0.71  0.00  0.00 -0.71  0.71
G_6-   0.00  0.00 -0.71  0.71 -1.00  1.00  0.71 -0.71  0.00  0.00  0.71 -0.71
G_7-   0.00  0.00 -0.71  0.71  1.00 -1.00  0.71 -0.71  0.00  0.00  0.71 -0.71
G_8-   0.00  0.00  0.71 -0.71 -1.00  1.00 -0.71  0.71  0.00  0.00 -0.71  0.71

       s_h   -s_h  S4    -S4  
                              
G_5+   1.00 -1.00 -0.71  0.71
G_6+  -1.00  1.00  0.71 -0.71
G_7+   1.00 -1.00  0.71 -0.71
G_8+  -1.00  1.00 -0.71  0.71
G_5-  -1.00  1.00  0.71 -0.71
G_6-   1.00 -1.00 -0.71  0.71
G_7-  -1.00  1.00 -0.71  0.71
G_8-   1.00 -1.00  0.71 -0.71

     the symmetry operations in each class:
     E             1
     C4^2          2
     C4^3          3
     C4            4
     i             5
     s_h           6
     S4            7
     S4^3          8
     -E           -1
     -C4^2        -2
     -C4^3        -3
     -C4          -4
     -i           -5
     -s_h         -6
     -S4          -7
     -S4^3        -8

   Cartesian axes

     site n.     atom                  positions (alat units)
         1           Fe  tau(   1) = (   0.0000000   0.0000000   0.0000000  )

   Crystallographic axes

     site n.     atom                  positions (cryst. coord.)
         1           Fe  tau(   1) = (  0.0000000  0.0000000  0.0000000  )

     number of k points=    99  gaussian smearing, width (Ry)=  0.0250
                       cart. coord. in units 2pi/alat
        k(    1) = (   0.0000000   0.0000000   0.1000431), wk =   0.0101010
        k(    2) = (   0.0000000  -0.1000000   0.2000431), wk =   0.0101010
        k(    3) = (   0.0000000  -0.2000000   0.3000431), wk =   0.0101010
        k(    4) = (   0.0000000  -0.3000000   0.4000431), wk =   0.0101010
        k(    5) = (   0.0000000  -0.4000000   0.5000432), wk =   0.0101010
        k(    6) = (  -0.1000000   0.1000000   0.1000431), wk =   0.0101010
        k(    7) = (  -0.1000000  -0.1000000   0.3000431), wk =   0.0101010
        k(    8) = (  -0.1000000  -0.2000000   0.4000431), wk =   0.0101010
        k(    9) = (  -0.1000000  -0.3000000   0.5000432), wk =   0.0101010
        k(   10) = (  -0.1000000   0.6000000  -0.3999569), wk =   0.0101010
        k(   11) = (  -0.2000000   0.2000000   0.1000431), wk =   0.0101010
        k(   12) = (  -0.2000000  -0.2000000   0.5000432), wk =   0.0101010
        k(   13) = (  -0.2000000   0.7000000  -0.3999569), wk =   0.0101010
        k(   14) = (  -0.3000000   0.3000000   0.1000431), wk =   0.0101010
        k(   15) = (  -0.3000000   0.2000000   0.2000431), wk =   0.0101010
        k(   16) = (  -0.3000000   0.7000000  -0.2999569), wk =   0.0101010
        k(   17) = (  -0.4000000   0.4000000   0.1000431), wk =   0.0101010
        k(   18) = (  -0.4000000   0.3000000   0.2000431), wk =   0.0101010
        k(   19) = (   0.5000000  -0.5000000   0.1000431), wk =   0.0101010
        k(   20) = (   0.5000000  -0.6000000   0.2000431), wk =   0.0101010
        k(   21) = (   0.5000000  -0.7000000   0.3000431), wk =   0.0101010
        k(   22) = (   0.4000000  -0.6000000   0.3000431), wk =   0.0101010
        k(   23) = (   0.0000000   0.0000000   0.3000431), wk =   0.0101010
        k(   24) = (   0.0000000  -0.1000000   0.4000431), wk =   0.0101010
        k(   25) = (   0.0000000  -0.2000000   0.5000432), wk =   0.0101010
        k(   26) = (   0.0000000  -0.3000000   0.6000432), wk =   0.0101010
        k(   27) = (  -0.1000000  -0.1000000   0.5000432), wk =   0.0101010
        k(   28) = (  -0.1000000  -0.2000000   0.6000432), wk =   0.0101010
        k(   29) = (  -0.1000000   0.7000000  -0.2999569), wk =   0.0101010
        k(   30) = (  -0.2000000   0.8000000  -0.2999569), wk =   0.0101010
        k(   31) = (  -0.3000000   0.3000000   0.3000431), wk =   0.0101010
        k(   32) = (   0.6000000  -0.6000000   0.3000431), wk =   0.0101010
        k(   33) = (   0.5000000  -0.5000000   0.3000431), wk =   0.0101010
        k(   34) = (   0.5000000  -0.6000000   0.4000431), wk =   0.0101010
        k(   35) = (   0.0000000   0.0000000   0.5000432), wk =   0.0101010
        k(   36) = (   0.0000000  -0.1000000   0.6000432), wk =   0.0101010
        k(   37) = (   0.0000000  -0.2000000   0.7000432), wk =   0.0101010
        k(   38) = (  -0.1000000  -0.1000000   0.7000432), wk =   0.0101010
        k(   39) = (  -0.1000000   0.8000000  -0.1999569), wk =   0.0101010
        k(   40) = (   0.5000000  -0.5000000   0.5000432), wk =   0.0101010
        k(   41) = (   0.0000000   0.0000000   0.7000432), wk =   0.0101010
        k(   42) = (   0.0000000  -0.1000000   0.8000432), wk =   0.0101010
        k(   43) = (  -0.1000000   0.9000000  -0.0999569), wk =   0.0101010
        k(   44) = (   0.0000000   0.0000000   0.9000432), wk =   0.0101010
        k(   45) = (   0.0000000   0.1000000   0.0000431), wk =   0.0101010
        k(   46) = (  -0.1000000   0.2000000   0.0000431), wk =   0.0101010
        k(   47) = (   0.2000000   0.0000000  -0.0999569), wk =   0.0101010
        k(   48) = (  -0.2000000   0.3000000   0.0000431), wk =   0.0101010
        k(   49) = (   0.3000000   0.0000000  -0.1999569), wk =   0.0101010
        k(   50) = (  -0.3000000   0.4000000   0.0000431), wk =   0.0101010
        k(   51) = (   0.4000000   0.0000000  -0.2999569), wk =   0.0101010
        k(   52) = (  -0.4000000   0.5000000   0.0000431), wk =   0.0101010
        k(   53) = (   0.5000000   0.0000000  -0.3999569), wk =   0.0101010
        k(   54) = (  -0.1000000   0.3000000  -0.0999569), wk =   0.0101010
        k(   55) = (  -0.2000000   0.4000000  -0.0999569), wk =   0.0101010
        k(   56) = (   0.4000000  -0.1000000  -0.1999569), wk =   0.0101010
        k(   57) = (  -0.3000000   0.5000000  -0.0999569), wk =   0.0101010
        k(   58) = (   0.5000000  -0.1000000  -0.2999569), wk =   0.0101010
        k(   59) = (   0.6000000  -0.4000000  -0.0999569), wk =   0.0101010
        k(   60) = (   0.2000000   0.1000000  -0.1999569), wk =   0.0101010
        k(   61) = (  -0.2000000   0.5000000  -0.1999569), wk =   0.0101010
        k(   62) = (   0.7000000  -0.4000000  -0.1999569), wk =   0.0101010
        k(   63) = (  -0.4000000  -0.2000000   0.7000432), wk =   0.0101010
        k(   64) = (   0.3000000   0.1000000  -0.2999569), wk =   0.0101010
        k(   65) = (   0.2000000   0.2000000  -0.2999569), wk =   0.0101010
        k(   66) = (   0.4000000   0.1000000  -0.3999569), wk =   0.0101010
        k(   67) = (   0.3000000   0.2000000  -0.3999569), wk =   0.0101010
        k(   68) = (   0.2000000  -0.4000000   0.3000431), wk =   0.0101010
        k(   69) = (  -0.5000000   0.1000000   0.5000432), wk =   0.0101010
        k(   70) = (  -0.6000000   0.2000000   0.5000432), wk =   0.0101010
        k(   71) = (   0.2000000   0.5000000  -0.5999569), wk =   0.0101010
        k(   72) = (  -0.7000000   0.3000000   0.5000432), wk =   0.0101010
        k(   73) = (  -0.6000000   0.3000000   0.4000431), wk =   0.0101010
        k(   74) = (   0.0000000   0.3000000   0.0000431), wk =   0.0101010
        k(   75) = (  -0.1000000   0.4000000   0.0000431), wk =   0.0101010
        k(   76) = (   0.4000000   0.0000000  -0.0999569), wk =   0.0101010
        k(   77) = (  -0.2000000   0.5000000   0.0000431), wk =   0.0101010
        k(   78) = (   0.5000000   0.0000000  -0.1999569), wk =   0.0101010
        k(   79) = (  -0.3000000   0.6000000   0.0000431), wk =   0.0101010
        k(   80) = (   0.6000000   0.0000000  -0.2999569), wk =   0.0101010
        k(   81) = (  -0.1000000   0.5000000  -0.0999569), wk =   0.0101010
        k(   82) = (  -0.2000000   0.6000000  -0.0999569), wk =   0.0101010
        k(   83) = (   0.6000000  -0.1000000  -0.1999569), wk =   0.0101010
        k(   84) = (   0.7000000  -0.3000000  -0.0999569), wk =   0.0101010
        k(   85) = (   0.8000000  -0.3000000  -0.1999569), wk =   0.0101010
        k(   86) = (  -0.6000000   0.3000000   0.6000432), wk =   0.0101010
        k(   87) = (  -0.5000000   0.3000000   0.5000432), wk =   0.0101010
        k(   88) = (  -0.6000000   0.4000000   0.5000432), wk =   0.0101010
        k(   89) = (   0.0000000   0.5000000   0.0000431), wk =   0.0101010
        k(   90) = (  -0.1000000   0.6000000   0.0000431), wk =   0.0101010
        k(   91) = (   0.6000000   0.0000000  -0.0999569), wk =   0.0101010
        k(   92) = (  -0.2000000   0.7000000   0.0000431), wk =   0.0101010
        k(   93) = (   0.7000000   0.0000000  -0.1999569), wk =   0.0101010
        k(   94) = (  -0.1000000   0.7000000  -0.0999569), wk =   0.0101010
        k(   95) = (   0.8000000  -0.2000000  -0.0999569), wk =   0.0101010
        k(   96) = (   0.0000000   0.7000000   0.0000431), wk =   0.0101010
        k(   97) = (  -0.1000000   0.8000000   0.0000431), wk =   0.0101010
        k(   98) = (   0.8000000   0.0000000  -0.0999569), wk =   0.0101010
        k(   99) = (   0.0000000   0.9000000   0.0000431), wk =   0.0101010

                       cryst. coord.
        k(    1) = (   0.0500215   0.0500215   0.0500215), wk =   0.0101010
        k(    2) = (   0.0500215   0.0500215   0.1500216), wk =   0.0101010
        k(    3) = (   0.0500215   0.0500215   0.2500216), wk =   0.0101010
        k(    4) = (   0.0500215   0.0500215   0.3500216), wk =   0.0101010
        k(    5) = (   0.0500216   0.0500216   0.4500216), wk =   0.0101010
        k(    6) = (   0.0500215   0.1500216   0.0500215), wk =   0.0101010
        k(    7) = (   0.0500215   0.1500216   0.2500216), wk =   0.0101010
        k(    8) = (   0.0500215   0.1500216   0.3500216), wk =   0.0101010
        k(    9) = (   0.0500216   0.1500216   0.4500216), wk =   0.0101010
        k(   10) = (   0.0500215   0.1500215  -0.4499785), wk =   0.0101010
        k(   11) = (   0.0500215   0.2500216   0.0500215), wk =   0.0101010
        k(   12) = (   0.0500216   0.2500216   0.4500216), wk =   0.0101010
        k(   13) = (   0.0500215   0.2500215  -0.4499784), wk =   0.0101010
        k(   14) = (   0.0500215   0.3500216   0.0500215), wk =   0.0101010
        k(   15) = (   0.0500216   0.3500216   0.1500216), wk =   0.0101010
        k(   16) = (   0.0500215   0.3500216  -0.3499784), wk =   0.0101010
        k(   17) = (   0.0500215   0.4500215   0.0500215), wk =   0.0101010
        k(   18) = (   0.0500215   0.4500215   0.1500216), wk =   0.0101010
        k(   19) = (   0.0500215  -0.4499785   0.0500215), wk =   0.0101010
        k(   20) = (   0.0500216  -0.4499785   0.1500216), wk =   0.0101010
        k(   21) = (   0.0500216  -0.4499784   0.2500215), wk =   0.0101010
        k(   22) = (   0.0500216  -0.3499784   0.2500215), wk =   0.0101010
        k(   23) = (   0.1500216   0.1500216   0.1500216), wk =   0.0101010
        k(   24) = (   0.1500216   0.1500216   0.2500215), wk =   0.0101010
        k(   25) = (   0.1500216   0.1500216   0.3500216), wk =   0.0101010
        k(   26) = (   0.1500216   0.1500216   0.4500216), wk =   0.0101010
        k(   27) = (   0.1500216   0.2500216   0.3500216), wk =   0.0101010
        k(   28) = (   0.1500216   0.2500216   0.4500216), wk =   0.0101010
        k(   29) = (   0.1500215   0.2500215  -0.4499785), wk =   0.0101010
        k(   30) = (   0.1500216   0.3500216  -0.4499785), wk =   0.0101010
        k(   31) = (   0.1500216   0.4500215   0.1500216), wk =   0.0101010
        k(   32) = (   0.1500216  -0.4499784   0.1500216), wk =   0.0101010
        k(   33) = (   0.1500216  -0.3499784   0.1500216), wk =   0.0101010
        k(   34) = (   0.1500216  -0.3499785   0.2500215), wk =   0.0101010
        k(   35) = (   0.2500216   0.2500216   0.2500216), wk =   0.0101010
        k(   36) = (   0.2500216   0.2500216   0.3500216), wk =   0.0101010
        k(   37) = (   0.2500216   0.2500216   0.4500216), wk =   0.0101010
        k(   38) = (   0.2500216   0.3500216   0.4500216), wk =   0.0101010
        k(   39) = (   0.2500216   0.3500216  -0.4499785), wk =   0.0101010
        k(   40) = (   0.2500216  -0.2499784   0.2500216), wk =   0.0101010
        k(   41) = (   0.3500216   0.3500216   0.3500216), wk =   0.0101010
        k(   42) = (   0.3500216   0.3500216   0.4500216), wk =   0.0101010
        k(   43) = (   0.3500216   0.4500215  -0.4499785), wk =   0.0101010
        k(   44) = (   0.4500216   0.4500216   0.4500216), wk =   0.0101010
        k(   45) = (   0.0500216   0.0500216  -0.0499785), wk =   0.0101010
        k(   46) = (   0.0500216   0.1500216  -0.0499785), wk =   0.0101010
        k(   47) = (   0.0500216  -0.1499785  -0.1499785), wk =   0.0101010
        k(   48) = (   0.0500215   0.2500215  -0.0499784), wk =   0.0101010
        k(   49) = (   0.0500215  -0.2499784  -0.2499784), wk =   0.0101010
        k(   50) = (   0.0500216   0.3500215  -0.0499785), wk =   0.0101010
        k(   51) = (   0.0500215  -0.3499785  -0.3499785), wk =   0.0101010
        k(   52) = (   0.0500215   0.4500215  -0.0499784), wk =   0.0101010
        k(   53) = (   0.0500215  -0.4499785  -0.4499785), wk =   0.0101010
        k(   54) = (   0.0500215   0.1500216  -0.1499784), wk =   0.0101010
        k(   55) = (   0.0500216   0.2500216  -0.1499785), wk =   0.0101010
        k(   56) = (   0.0500216  -0.3499784  -0.2499785), wk =   0.0101010
        k(   57) = (   0.0500216   0.3500216  -0.1499785), wk =   0.0101010
        k(   58) = (   0.0500215  -0.4499785  -0.3499785), wk =   0.0101010
        k(   59) = (   0.0500215  -0.5499785  -0.1499784), wk =   0.0101010
        k(   60) = (   0.0500216  -0.1499784  -0.2499785), wk =   0.0101010
        k(   61) = (   0.0500215   0.2500215  -0.2499784), wk =   0.0101010
        k(   62) = (   0.0500215  -0.6499785  -0.2499784), wk =   0.0101010
        k(   63) = (   0.0500216   0.4500216   0.6500216), wk =   0.0101010
        k(   64) = (   0.0500215  -0.2499785  -0.3499785), wk =   0.0101010
        k(   65) = (   0.0500215  -0.1499785  -0.3499785), wk =   0.0101010
        k(   66) = (   0.0500215  -0.3499785  -0.4499785), wk =   0.0101010
        k(   67) = (   0.0500215  -0.2499784  -0.4499785), wk =   0.0101010
        k(   68) = (   0.0500215  -0.1499785   0.2500216), wk =   0.0101010
        k(   69) = (   0.0500216   0.5500216   0.4500216), wk =   0.0101010
        k(   70) = (   0.0500216   0.6500216   0.4500216), wk =   0.0101010
        k(   71) = (   0.0500215  -0.1499785  -0.6499784), wk =   0.0101010
        k(   72) = (   0.0500216   0.7500216   0.4500216), wk =   0.0101010
        k(   73) = (   0.0500215   0.6500215   0.3500216), wk =   0.0101010
        k(   74) = (   0.1500216   0.1500216  -0.1499784), wk =   0.0101010
        k(   75) = (   0.1500216   0.2500215  -0.1499785), wk =   0.0101010
        k(   76) = (   0.1500216  -0.2499785  -0.2499785), wk =   0.0101010
        k(   77) = (   0.1500216   0.3500215  -0.1499784), wk =   0.0101010
        k(   78) = (   0.1500216  -0.3499784  -0.3499784), wk =   0.0101010
        k(   79) = (   0.1500216   0.4500215  -0.1499784), wk =   0.0101010
        k(   80) = (   0.1500215  -0.4499785  -0.4499785), wk =   0.0101010
        k(   81) = (   0.1500216   0.2500215  -0.2499785), wk =   0.0101010
        k(   82) = (   0.1500215   0.3500216  -0.2499784), wk =   0.0101010
        k(   83) = (   0.1500216  -0.4499784  -0.3499784), wk =   0.0101010
        k(   84) = (   0.1500215  -0.5499785  -0.2499784), wk =   0.0101010
        k(   85) = (   0.1500216  -0.6499785  -0.3499784), wk =   0.0101010
        k(   86) = (   0.1500216   0.7500216   0.4500216), wk =   0.0101010
        k(   87) = (   0.1500216   0.6500216   0.3500216), wk =   0.0101010
        k(   88) = (   0.1500216   0.7500216   0.3500216), wk =   0.0101010
        k(   89) = (   0.2500215   0.2500215  -0.2499784), wk =   0.0101010
        k(   90) = (   0.2500215   0.3500215  -0.2499784), wk =   0.0101010
        k(   91) = (   0.2500215  -0.3499784  -0.3499784), wk =   0.0101010
        k(   92) = (   0.2500215   0.4500215  -0.2499784), wk =   0.0101010
        k(   93) = (   0.2500215  -0.4499784  -0.4499784), wk =   0.0101010
        k(   94) = (   0.2500215   0.3500215  -0.3499784), wk =   0.0101010
        k(   95) = (   0.2500216  -0.5499785  -0.3499785), wk =   0.0101010
        k(   96) = (   0.3500215   0.3500215  -0.3499784), wk =   0.0101010
        k(   97) = (   0.3500216   0.4500215  -0.3499785), wk =   0.0101010
        k(   98) = (   0.3500216  -0.4499785  -0.4499785), wk =   0.0101010
        k(   99) = (   0.4500215   0.4500215  -0.4499785), wk =   0.0101010

     Dense  grid:     6363 G-vectors     FFT dimensions: (  25,  25,  25)

     Largest allocated arrays     est. size (Mb)     dimensions
        Kohn-Sham Wavefunctions         0.49 Mb     (   1590,   20)
        NL pseudopotentials             0.19 Mb     (    795,   16)
        Each V/rho on FFT grid          0.24 Mb     (  15625)
        Each G-vector array             0.05 Mb     (   6363)
        G-vector shells                 0.00 Mb     (     98)
     Largest temporary arrays     est. size (Mb)     dimensions
        Auxiliary wavefunctions         1.94 Mb     (   1590,   80)
        Each subspace H/S matrix        0.10 Mb     (  80,  80)
        Each <psi_i|beta_j> matrix      0.01 Mb     (     16,   2,   20)

     Check: negative/imaginary core charge=   -0.000002    0.000000

     The potential is recalculated from file :
     ./Fe_nscf_e70_k10s3_nb20_so.save/charge-density.dat

     Starting wfc are   18 randomized atomic wfcs

     total cpu time spent up to now is        1.1 secs

     per-process dynamical memory:    13.0 Mb

     Band Structure Calculation
     Davidson diagonalization with overlap

     Computing kpt #:     1
     total cpu time spent up to now is        1.7 secs

     Computing kpt #:     2
     total cpu time spent up to now is        2.4 secs

     Computing kpt #:     3
     total cpu time spent up to now is        3.0 secs

     Computing kpt #:     4
     total cpu time spent up to now is        3.6 secs

     Computing kpt #:     5
     total cpu time spent up to now is        4.1 secs

     Computing kpt #:     6
     total cpu time spent up to now is        4.8 secs

     Computing kpt #:     7
     total cpu time spent up to now is        5.4 secs

     Computing kpt #:     8
     total cpu time spent up to now is        6.0 secs

     Computing kpt #:     9
     total cpu time spent up to now is        6.6 secs

     Computing kpt #:    10
     total cpu time spent up to now is        7.2 secs

     Computing kpt #:    11
     total cpu time spent up to now is        7.8 secs

     Computing kpt #:    12
     total cpu time spent up to now is        8.3 secs

     Computing kpt #:    13
     total cpu time spent up to now is        8.9 secs

     Computing kpt #:    14
     total cpu time spent up to now is        9.5 secs

     Computing kpt #:    15
     total cpu time spent up to now is       10.1 secs

     Computing kpt #:    16
     total cpu time spent up to now is       10.6 secs

     Computing kpt #:    17
     total cpu time spent up to now is       11.2 secs

     Computing kpt #:    18
     total cpu time spent up to now is       11.8 secs

     Computing kpt #:    19
     total cpu time spent up to now is       12.4 secs

     Computing kpt #:    20
     total cpu time spent up to now is       12.8 secs

     Computing kpt #:    21
     total cpu time spent up to now is       13.1 secs

     Computing kpt #:    22
     total cpu time spent up to now is       13.4 secs

     Computing kpt #:    23
     total cpu time spent up to now is       13.7 secs

     Computing kpt #:    24
     total cpu time spent up to now is       14.0 secs

     Computing kpt #:    25
     total cpu time spent up to now is       14.3 secs

     Computing kpt #:    26
     total cpu time spent up to now is       14.7 secs

     Computing kpt #:    27
     total cpu time spent up to now is       15.0 secs

     Computing kpt #:    28
     total cpu time spent up to now is       15.3 secs

     Computing kpt #:    29
     total cpu time spent up to now is       15.6 secs

     Computing kpt #:    30
     total cpu time spent up to now is       15.9 secs

     Computing kpt #:    31
     total cpu time spent up to now is       16.2 secs

     Computing kpt #:    32
     total cpu time spent up to now is       16.5 secs

     Computing kpt #:    33
     total cpu time spent up to now is       16.8 secs

     Computing kpt #:    34
     total cpu time spent up to now is       17.2 secs

     Computing kpt #:    35
     total cpu time spent up to now is       17.5 secs

     Computing kpt #:    36
     total cpu time spent up to now is       17.8 secs

     Computing kpt #:    37
     total cpu time spent up to now is       18.1 secs

     Computing kpt #:    38
     total cpu time spent up to now is       18.4 secs

     Computing kpt #:    39
     total cpu time spent up to now is       18.7 secs

     Computing kpt #:    40
     total cpu time spent up to now is       19.3 secs

     Computing kpt #:    41
     total cpu time spent up to now is       19.6 secs

     Computing kpt #:    42
     total cpu time spent up to now is       19.9 secs

     Computing kpt #:    43
     total cpu time spent up to now is       20.2 secs

     Computing kpt #:    44
     total cpu time spent up to now is       20.4 secs

     Computing kpt #:    45
     total cpu time spent up to now is       20.8 secs

     Computing kpt #:    46
     total cpu time spent up to now is       21.2 secs

     Computing kpt #:    47
     total cpu time spent up to now is       21.6 secs

     Computing kpt #:    48
     total cpu time spent up to now is       21.9 secs

     Computing kpt #:    49
     total cpu time spent up to now is       22.3 secs

     Computing kpt #:    50
     total cpu time spent up to now is       22.6 secs

     Computing kpt #:    51
     total cpu time spent up to now is       22.9 secs

     Computing kpt #:    52
     total cpu time spent up to now is       23.2 secs

     Computing kpt #:    53
     total cpu time spent up to now is       23.6 secs

     Computing kpt #:    54
     total cpu time spent up to now is       23.9 secs

     Computing kpt #:    55
     total cpu time spent up to now is       24.2 secs

     Computing kpt #:    56
     total cpu time spent up to now is       24.5 secs

     Computing kpt #:    57
     total cpu time spent up to now is       24.8 secs

     Computing kpt #:    58
     total cpu time spent up to now is       25.2 secs

     Computing kpt #:    59
     total cpu time spent up to now is       25.5 secs

     Computing kpt #:    60
     total cpu time spent up to now is       25.9 secs

     Computing kpt #:    61
     total cpu time spent up to now is       26.2 secs

     Computing kpt #:    62
     total cpu time spent up to now is       26.5 secs

     Computing kpt #:    63
     total cpu time spent up to now is       26.8 secs

     Computing kpt #:    64
     total cpu time spent up to now is       27.5 secs

     Computing kpt #:    65
     total cpu time spent up to now is       28.0 secs

     Computing kpt #:    66
     total cpu time spent up to now is       28.3 secs

     Computing kpt #:    67
     total cpu time spent up to now is       28.7 secs

     Computing kpt #:    68
     total cpu time spent up to now is       29.0 secs

     Computing kpt #:    69
     total cpu time spent up to now is       29.3 secs

     Computing kpt #:    70
     total cpu time spent up to now is       29.6 secs

     Computing kpt #:    71
     total cpu time spent up to now is       29.9 secs

     Computing kpt #:    72
     total cpu time spent up to now is       30.2 secs

     Computing kpt #:    73
     total cpu time spent up to now is       30.5 secs

     Computing kpt #:    74
     total cpu time spent up to now is       30.9 secs

     Computing kpt #:    75
     total cpu time spent up to now is       31.2 secs

     Computing kpt #:    76
     total cpu time spent up to now is       31.5 secs

     Computing kpt #:    77
     total cpu time spent up to now is       31.8 secs

     Computing kpt #:    78
     total cpu time spent up to now is       32.3 secs

     Computing kpt #:    79
     total cpu time spent up to now is       32.7 secs

     Computing kpt #:    80
     total cpu time spent up to now is       33.0 secs

     Computing kpt #:    81
     total cpu time spent up to now is       33.3 secs

     Computing kpt #:    82
     total cpu time spent up to now is       33.6 secs

     Computing kpt #:    83
     total cpu time spent up to now is       33.8 secs

     Computing kpt #:    84
     total cpu time spent up to now is       34.1 secs

     Computing kpt #:    85
     total cpu time spent up to now is       34.4 secs

     Computing kpt #:    86
     total cpu time spent up to now is       34.7 secs

     Computing kpt #:    87
     total cpu time spent up to now is       35.0 secs

     Computing kpt #:    88
     total cpu time spent up to now is       35.4 secs

     Computing kpt #:    89
     total cpu time spent up to now is       35.6 secs

     Computing kpt #:    90
     total cpu time spent up to now is       35.9 secs

     Computing kpt #:    91
     total cpu time spent up to now is       36.2 secs

     Computing kpt #:    92
     total cpu time spent up to now is       36.4 secs

     Computing kpt #:    93
     total cpu time spent up to now is       36.7 secs

     Computing kpt #:    94
     total cpu time spent up to now is       37.0 secs

     Computing kpt #:    95
     total cpu time spent up to now is       37.3 secs

     Computing kpt #:    96
     total cpu time spent up to now is       37.5 secs

     Computing kpt #:    97
     total cpu time spent up to now is       37.8 secs

     Computing kpt #:    98
     total cpu time spent up to now is       38.1 secs

     Computing kpt #:    99
     total cpu time spent up to now is       38.4 secs

     ethr =  1.25E-10,  avg # of iterations = 14.2

     total cpu time spent up to now is       38.4 secs

     End of band structure calculation

          k = 0.0000 0.0000 0.1000     band energies (ev):

     5.2846   5.4484  11.2323  11.2907  11.3141  12.3566  12.4724  13.5255
    13.5786  13.6168  15.4112  15.5723  38.3211  38.6086  39.2522  39.2565
    39.5789  39.5849  42.1052  42.6686

          k = 0.0000-0.1000 0.2000     band energies (ev):

     6.0619   6.2341  11.0871  11.2275  11.7059  12.1690  12.5330  13.3375
    13.4833  14.0439  15.1412  15.6438  35.2680  35.5079  37.5663  37.6186
    38.9599  39.0646  41.5447  41.8159

          k = 0.0000-0.2000 0.3000     band energies (ev):

     7.4139   7.6740  10.7939  11.1083  12.1682  12.4291  12.6039  12.9837
    13.2283  14.8317  15.0403  15.7173  30.1116  30.7838  35.1126  35.2212
    36.7956  37.5158  40.9579  41.1391

          k = 0.0000-0.3000 0.4000     band energies (ev):

     8.5748   9.3430  10.5105  11.4945  12.3998  12.6400  12.8286  13.0799
    13.2461  15.1797  15.7479  15.8209  25.2659  26.2573  33.2345  33.3254
    34.3872  35.1542  40.8122  40.9992

          k = 0.0000-0.4000 0.5000     band energies (ev):

     8.8437  10.3079  10.3408  12.1359  12.4035  12.4947  13.5489  13.8042
    14.0148  15.3026  16.0361  16.3980  21.6609  23.0642  32.2318  32.2946
    32.9364  33.6434  40.7924  41.0374

          k =-0.1000 0.1000 0.1000     band energies (ev):

     5.6793   5.8456  11.1307  11.1524  11.6311  12.3810  12.3965  13.3968
    13.4189  13.9567  15.4467  15.4569  37.2780  37.2827  37.3142  37.3222
    39.7610  40.1507  40.3866  41.4724

          k =-0.1000-0.1000 0.3000     band energies (ev):

     7.1239   7.3401  11.0150  11.0207  11.9848  12.2505  12.6732  13.2118
    13.2541  14.6082  14.8471  15.7870  32.8236  33.2195  33.3198  33.8772
    38.4115  39.0614  39.0824  39.1370

          k =-0.1000-0.2000 0.4000     band energies (ev):

     8.4570   8.9246  10.6757  10.9566  12.1189  12.7441  12.8293  12.9954
    13.2937  14.8680  15.4856  15.9711  27.9285  28.7196  31.0876  31.6547
    35.8811  36.3765  39.7290  39.9104

          k =-0.1000-0.3000 0.5000     band energies (ev):

     9.0927  10.3201  10.4997  11.2553  12.3398  12.5807  12.9071  13.1380
    14.7102  15.0993  15.8989  16.8115  23.4632  24.5835  29.6721  30.2515
    34.1533  34.5578  40.4760  40.7387

          k =-0.1000 0.6000-0.4000     band energies (ev):

     9.1335  10.4420  10.7462  11.4901  12.3641  12.5274  13.0804  13.4440
    15.1751  16.0036  16.0813  17.5705  21.0952  22.5539  29.1405  29.7133
    33.5525  33.9189  40.7788  41.0888

          k =-0.2000 0.2000 0.1000     band energies (ev):

     6.7851   6.9804  10.8629  10.9968  12.2675  12.2897  12.4708  13.0701
    13.1961  14.6408  15.2715  15.5475  32.7144  33.1801  35.0864  35.2652
    36.9334  37.8510  40.4957  40.7983

          k =-0.2000-0.2000 0.5000     band energies (ev):

     9.4000  10.3344  10.3688  10.9522  12.2418  12.4047  12.8516  12.9326
    14.9531  14.9793  15.7748  17.0737  26.1342  26.3874  26.9857  27.2112
    35.3077  35.8059  39.6247  39.7012

          k =-0.2000 0.7000-0.4000     band energies (ev):

     9.6678  10.3765  10.8463  11.2905  12.3013  12.4610  12.6568  13.0674
    15.1993  15.8098  17.3497  18.8780  22.1998  23.3686  25.3281  26.1472
    34.7142  35.1929  40.5015  40.6229

          k =-0.3000 0.3000 0.1000     band energies (ev):

     8.1951   8.6167  10.5551  11.0312  12.3427  12.5454  12.6991  12.9264
    13.1990  15.2706  15.5716  15.6610  27.6373  28.4455  33.0585  33.2578
    34.4298  35.2620  41.0048  41.1048

          k =-0.3000 0.2000 0.2000     band energies (ev):

     8.0539   8.3509  10.6412  10.6729  12.3080  12.5473  12.7665  12.7821
    13.2476  15.2717  15.5555  15.6718  30.3669  30.7194  30.9068  31.3732
    33.8269  34.5039  41.7365  42.0194

          k =-0.3000 0.7000-0.3000     band energies (ev):

    10.1359  10.3466  10.3749  12.0235  12.1633  12.1782  12.7840  12.8150
    15.5106  15.5456  20.4557  20.4846  21.6378  21.6451  22.8963  23.9526
    34.9609  35.5140  41.7459  41.7525

          k =-0.4000 0.4000 0.1000     band energies (ev):

     8.8692  10.0489  10.3247  12.0013  12.3766  12.5170  12.6177  13.1308
    14.3034  15.3744  15.7532  16.5222  23.2532  24.4152  31.6954  31.8627
    32.6294  33.3922  41.1923  41.2459

          k =-0.4000 0.3000 0.2000     band energies (ev):

     9.1601   9.9499  10.3765  10.8424  12.3663  12.4461  12.5981  12.6601
    14.6185  15.3445  15.7492  16.7812  25.7131  26.5968  28.8796  29.5065
    32.0837  32.6669  42.5343  42.6709

          k = 0.5000-0.5000 0.1000     band energies (ev):

     8.9253  10.2400  10.4754  12.2865  12.5195  12.6401  12.7719  13.6228
    15.2175  15.4209  15.7936  17.0300  21.0494  22.5531  31.2176  31.3662
    31.9521  32.6766  41.2095  41.3149

          k = 0.5000-0.6000 0.2000     band energies (ev):

     9.3327  10.2530  10.8443  11.5333  12.2444  12.5307  12.7503  12.8646
    15.4537  15.8062  16.4200  18.0574  21.9132  23.1785  27.9376  28.5578
    31.1550  31.6938  42.8707  42.8957

          k = 0.5000-0.7000 0.3000     band energies (ev):

     9.7544  10.2815  10.8191  11.1596  12.1488  12.4252  12.5399  12.7412
    15.4566  15.7817  16.8162  18.5193  24.1340  24.6964  25.0429  25.5899
    31.0663  31.6340  43.7721  43.8970

          k = 0.4000-0.6000 0.3000     band energies (ev):

     9.8168  10.3218  10.8793  11.5425  12.1562  12.4192  12.6103  12.7523
    15.5620  15.7474  19.0037  20.2501  21.3406  22.5572  24.0520  24.9438
    30.7342  31.3098  44.4582  44.5446

          k = 0.0000 0.0000 0.3000     band energies (ev):

     6.7914   6.9857  11.2930  11.3527  11.6495  11.7750  12.7379  13.5370
    13.5894  14.0660  14.5540  15.8628  35.2751  35.3164  36.3289  36.4529
    36.5321  36.8898  36.9816  37.0771

          k = 0.0000-0.1000 0.4000     band energies (ev):

     8.0203   8.3453  11.0095  11.1804  11.7471  12.3456  13.0028  13.3404
    13.3878  14.3062  14.7474  16.0296  30.7389  31.3991  33.8292  34.1385
    34.4491  34.5219  37.4469  37.8795

          k = 0.0000-0.2000 0.5000     band energies (ev):

     9.0313   9.8957  10.7341  10.9502  12.1101  12.8145  13.0929  13.1787
    13.8813  14.6569  15.6641  16.3784  25.7892  26.7232  31.6566  32.3592
    32.8024  33.1272  39.3798  39.7271

          k = 0.0000-0.3000 0.6000     band energies (ev):

     9.2265  10.7984  10.8156  10.9153  12.1789  12.7001  12.9308  13.7508
    14.8269  15.7908  16.3366  17.3887  21.9004  23.1976  30.3610  31.0223
    32.0810  32.4057  41.8675  42.0776

          k =-0.1000-0.1000 0.5000     band energies (ev):

     9.0417   9.7277  10.5120  11.2972  11.8913  12.8179  12.8454  13.4421
    13.8818  14.3442  15.3699  16.4188  28.7080  28.8151  29.4639  29.5611
    35.5524  35.7627  36.0422  36.1078

          k =-0.1000-0.2000 0.6000     band energies (ev):

     9.5454  10.2700  10.9379  11.1134  12.2098  12.3425  13.2283  13.3255
    14.7175  15.8641  15.9312  17.6925  24.1304  25.1279  27.3164  28.0646
    34.4209  34.8391  38.0255  38.3611

          k =-0.1000 0.7000-0.3000     band energies (ev):

     9.5329  10.4081  10.9446  11.3644  12.2476  12.3173  13.0629  13.5775
    14.8384  16.1523  17.8872  19.1509  21.3034  22.6091  26.7606  27.4875
    34.0012  34.4139  40.6138  40.6789

          k =-0.2000 0.8000-0.3000     band energies (ev):

     9.9384   9.9645  10.8663  11.7531  11.9855  12.6993  12.9175  13.2225
    15.2135  15.7802  18.8381  20.1357  22.5962  23.6174  23.6332  24.5623
    37.0337  37.3758  37.5388  37.5930

          k =-0.3000 0.3000 0.3000     band energies (ev):

     9.3043   9.8100  10.3692  10.3719  12.3625  12.3788  12.5250  12.5518
    14.6442  15.5718  15.6059  16.8213  28.4786  28.5319  28.9178  29.0846
    29.1183  29.8485  44.1488  44.5375

          k = 0.6000-0.6000 0.3000     band energies (ev):

     9.8293  10.2202  10.7367  11.0951  12.1472  12.2744  12.5758  12.6368
    15.6216  15.7647  16.6244  18.3758  24.1492  25.0762  27.3473  27.4594
    27.9459  28.2592  45.7881  46.0939

          k = 0.5000-0.5000 0.3000     band energies (ev):

     9.7625  10.1739  11.1685  11.3836  12.0737  12.5397  12.6073  12.6718
    15.6529  15.8189  18.4743  19.7385  21.4066  22.6773  26.9523  26.9789
    27.5512  27.7620  46.2171  46.4515

          k = 0.5000-0.6000 0.4000     band energies (ev):

    10.0544  10.3283  10.6581  11.7695  12.0521  12.1760  12.6345  12.6706
    15.7407  15.8070  19.3395  20.6148  22.8749  23.7066  23.8088  24.6403
    26.6663  27.3785  48.3008  48.5735

          k = 0.0000 0.0000 0.5000     band energies (ev):

     8.8887   9.4878  10.6439  11.6565  11.7196  12.4085  13.1930  13.6568
    13.8896  13.9286  14.8320  16.3578  30.9931  31.1491  31.7071  31.8597
    33.0150  33.1750  33.4016  33.7400

          k = 0.0000-0.1000 0.6000     band energies (ev):

     9.4431  10.1160  10.6494  11.7241  12.0505  12.4489  13.0640  13.9384
    14.3578  15.1907  15.5525  17.1435  26.6967  27.5102  28.8415  29.5251
    32.3120  32.8711  34.6019  35.0998

          k = 0.0000-0.2000 0.7000     band energies (ev):

     9.4963   9.9482  11.3537  11.6484  11.9659  12.2139  13.6590  13.8576
    14.5693  16.2369  17.7524  19.0171  22.5081  23.5718  27.5238  28.1471
    31.9047  32.5069  37.3047  37.6413

          k =-0.1000-0.1000 0.7000     band energies (ev):

     9.5629   9.6948  11.2919  11.7976  11.9183  12.5738  13.3766  13.9993
    14.9219  15.9051  17.5587  18.8892  24.9978  25.2694  25.8033  26.0247
    33.7260  34.0307  34.1881  34.6633

          k =-0.1000 0.8000-0.2000     band energies (ev):

     9.4949   9.6225  11.5804  11.6360  11.7516  12.8408  13.5310  13.9052
    15.2429  16.0743  20.1831  21.1425  21.8380  22.8473  24.5512  25.2832
    33.6044  34.1425  36.2981  36.5811

          k = 0.5000-0.5000 0.5000     band energies (ev):

    10.3566  10.3675  10.3785  12.0284  12.0355  12.0368  12.6633  12.6649
    15.8312  15.8317  22.4107  22.4450  22.4815  23.3628  23.3867  23.4089
    23.8390  24.7787  52.9218  52.9230

          k = 0.0000 0.0000 0.7000     band energies (ev):

     9.3986   9.6184  11.1008  11.9082  12.4787  12.5486  13.1100  14.7628
    14.8338  15.6189  17.0722  18.3926  26.4272  26.5944  27.0517  27.2141
    31.8380  32.0844  32.5007  32.8591

          k = 0.0000-0.1000 0.8000     band energies (ev):

     9.2667   9.3157  11.2824  11.4821  12.6747  12.8714  13.5790  15.0187
    15.2161  16.1424  19.7909  20.6688  23.4396  24.1404  25.1136  25.6418
    31.7422  32.4994  33.4667  34.1042

          k =-0.1000 0.9000-0.1000     band energies (ev):

     9.1545   9.1564  11.2735  11.2749  12.7789  13.4571  13.4865  15.1181
    15.9762  16.0033  22.3972  22.4784  23.0030  23.0984  23.1926  23.7803
    32.8974  32.9084  33.4861  33.4965

          k = 0.0000 0.0000 0.9000     band energies (ev):

     8.9971   9.0014  11.1040  11.1559  13.4105  13.4800  13.5560  15.9188
    15.9906  16.1218  21.9485  22.4480  23.5424  23.7045  23.9221  24.0838
    31.3689  31.8805  32.1774  32.6896

          k = 0.0000 0.1000 0.0000     band energies (ev):

     5.2844   5.4482  11.2489  11.2597  11.3289  12.3511  12.4780  13.5429
    13.5475  13.6303  15.4102  15.5732  38.3216  38.6093  39.2543  39.2544
    39.5819  39.5820  42.1061  42.6718

          k =-0.1000 0.2000 0.0000     band energies (ev):

     6.0615   6.2338  11.0882  11.2261  11.7086  12.1611  12.5395  13.3397
    13.4782  14.0465  15.1394  15.6448  35.2690  35.5088  37.5674  37.6192
    38.9606  39.0652  41.5474  41.8096

          k = 0.2000 0.0000-0.1000     band energies (ev):

     6.0614   6.2336  11.0880  11.2266  11.7078  12.1626  12.5384  13.3370
    13.4822  14.0451  15.1399  15.6446  35.2701  35.5097  37.5674  37.6199
    38.9605  39.0649  41.5453  41.8216

          k =-0.2000 0.3000 0.0000     band energies (ev):

     7.4134   7.6736  10.7942  11.1084  12.1657  12.4239  12.6126  12.9846
    13.2257  14.8370  15.0338  15.7187  30.1128  30.7848  35.1136  35.2216
    36.7964  37.5170  40.9573  41.1382

          k = 0.3000 0.0000-0.2000     band energies (ev):

     7.4132   7.6733  10.7941  11.1084  12.1687  12.4188  12.6150  12.9816
    13.2287  14.8347  15.0358  15.7184  30.1138  30.7859  35.1134  35.2224
    36.7967  37.5169  40.9582  41.1390

          k =-0.3000 0.4000 0.0000     band energies (ev):

     8.5745   9.3426  10.5107  11.4940  12.3907  12.6478  12.8399  13.0653
    13.2511  15.1782  15.7487  15.8210  25.2670  26.2581  33.2356  33.3252
    34.3878  35.1552  40.8116  40.9987

          k = 0.4000 0.0000-0.3000     band energies (ev):

     8.5745   9.3423  10.5107  11.4936  12.4009  12.6406  12.8247  13.0781
    13.2504  15.1805  15.7356  15.8315  25.2677  26.2590  33.2350  33.3262
    34.3881  35.1551  40.8122  40.9992

          k =-0.4000 0.5000 0.0000     band energies (ev):

     8.8436  10.3077  10.3410  12.1301  12.4007  12.5047  13.5470  13.8043
    14.0150  15.3009  16.0383  16.3969  21.6616  23.0646  32.2333  32.2934
    32.9367  33.6441  40.7918  41.0370

          k = 0.5000 0.0000-0.4000     band energies (ev):

     8.8437  10.3078  10.3408  12.1328  12.4164  12.4847  13.5467  13.8039
    14.0169  15.3027  16.0343  16.3990  21.6619  23.0650  32.2319  32.2949
    32.9367  33.6438  40.7924  41.0374

          k =-0.1000 0.3000-0.1000     band energies (ev):

     7.1233   7.3395  11.0148  11.0218  11.9852  12.2435  12.6809  13.2120
    13.2517  14.6129  14.8415  15.7879  32.8250  33.2216  33.3207  33.8791
    38.4127  39.0468  39.1101  39.1246

          k =-0.2000 0.4000-0.1000     band energies (ev):

     8.4564   8.9240  10.6764  10.9564  12.1151  12.7458  12.8348  12.9913
    13.2942  14.8677  15.4838  15.9723  27.9295  28.7203  31.0898  31.6567
    35.8812  36.3766  39.7293  39.9109

          k = 0.4000-0.1000-0.2000     band energies (ev):

     8.4564   8.9239  10.6762  10.9563  12.1166  12.7464  12.8280  12.9951
    13.2950  14.8684  15.4824  15.9728  27.9306  28.7215  31.0885  31.6555
    35.8821  36.3774  39.7285  39.9100

          k =-0.3000 0.5000-0.1000     band energies (ev):

     9.0923  10.3198  10.5001  11.2547  12.3354  12.5850  12.9075  13.1383
    14.7101  15.0977  15.8991  16.8112  23.4640  24.5841  29.6740  30.2532
    34.1531  34.5575  40.4761  40.7389

          k = 0.5000-0.1000-0.3000     band energies (ev):

     9.0926  10.3199  10.5000  11.2543  12.3412  12.5788  12.9056  13.1396
    14.7107  15.0995  15.8969  16.8119  23.4647  24.5849  29.6726  30.2519
    34.1539  34.5583  40.4757  40.7384

          k = 0.6000-0.4000-0.1000     band energies (ev):

     9.1333  10.4421  10.7463  11.4892  12.3573  12.5365  13.0798  13.4436
    15.1746  15.9997  16.0849  17.5698  21.0955  22.5539  29.1421  29.7148
    33.5520  33.9184  40.7788  41.0890

          k = 0.2000 0.1000-0.2000     band energies (ev):

     6.7847   6.9799  10.8629  10.9970  12.2526  12.3124  12.4623  13.0682
    13.1991  14.6393  15.2740  15.5458  32.7154  33.1810  35.0875  35.2667
    36.9356  37.8530  40.4951  40.7976

          k =-0.2000 0.5000-0.2000     band energies (ev):

     9.3996  10.3356  10.3676  10.9518  12.2407  12.4017  12.8642  12.9242
    14.9520  14.9802  15.7737  17.0735  26.1370  26.3858  26.9897  27.2109
    35.3081  35.8062  39.6243  39.7009

          k = 0.7000-0.4000-0.2000     band energies (ev):

     9.6673  10.3771  10.8464  11.2896  12.3010  12.4572  12.6618  13.0672
    15.1986  15.8103  17.3484  18.8771  22.2004  23.3689  25.3297  26.1487
    34.7141  35.1927  40.5011  40.6227

          k =-0.4000-0.2000 0.7000     band energies (ev):

     9.6677  10.3768  10.8459  11.2904  12.3029  12.4562  12.6594  13.0679
    15.1990  15.8101  17.3486  18.8774  22.2010  23.3696  25.3284  26.1474
    34.7144  35.1931  40.5011  40.6226

          k = 0.3000 0.1000-0.3000     band energies (ev):

     8.1948   8.6162  10.5551  11.0313  12.3539  12.5335  12.6920  12.9361
    13.1969  15.2713  15.5714  15.6600  27.6381  28.4464  33.0591  33.2593
    34.4317  35.2637  41.0040  41.1040

          k = 0.2000 0.2000-0.3000     band energies (ev):

     8.0533   8.3502  10.6410  10.6732  12.3139  12.5378  12.7702  12.7824
    13.2467  15.2705  15.5614  15.6666  30.3694  30.7160  30.9129  31.3737
    33.8279  34.5050  41.7360  42.0190

          k = 0.4000 0.1000-0.4000     band energies (ev):

     8.8691  10.0486  10.3248  12.0009  12.3919  12.5124  12.6049  13.1326
    14.3032  15.3775  15.7497  16.5222  23.2536  24.4158  31.6953  31.8646
    32.6307  33.3936  41.1915  41.2452

          k = 0.3000 0.2000-0.4000     band energies (ev):

     9.1598   9.9493  10.3764  10.8426  12.3820  12.4396  12.5792  12.6696
    14.6178  15.3459  15.7482  16.7805  25.7136  26.5975  28.8816  29.5085
    32.0844  32.6676  42.5337  42.6704

          k = 0.2000-0.4000 0.3000     band energies (ev):

     9.1600   9.9499  10.3765  10.8427  12.3818  12.4328  12.5881  12.6675
    14.6187  15.3458  15.7479  16.7813  25.7117  26.5957  28.8811  29.5079
    32.0838  32.6670  42.5340  42.6705

          k =-0.5000 0.1000 0.5000     band energies (ev):

     8.9252  10.2401  10.4751  12.2939  12.5201  12.6276  12.7763  13.6227
    15.2187  15.4236  15.7893  17.0300  21.0491  22.5531  31.2169  31.3683
    31.9530  32.6776  41.2087  41.3142

          k =-0.6000 0.2000 0.5000     band energies (ev):

     9.3325  10.2530  10.8437  11.5335  12.2490  12.5300  12.7480  12.8629
    15.4566  15.8037  16.4189  18.0566  21.9134  23.1789  27.9395  28.5597
    31.1553  31.6942  42.8700  42.8951

          k = 0.2000 0.5000-0.6000     band energies (ev):

     9.3324  10.2530  10.8439  11.5336  12.2496  12.5280  12.7471  12.8654
    15.4561  15.8045  16.4193  18.0571  21.9122  23.1779  27.9393  28.5594
    31.1551  31.6940  42.8701  42.8951

          k =-0.7000 0.3000 0.5000     band energies (ev):

     9.7544  10.2812  10.8193  11.1591  12.1479  12.4424  12.5248  12.7400
    15.4583  15.7800  16.8153  18.5183  24.1354  24.6972  25.0442  25.5908
    31.0666  31.6343  43.7716  43.8967

          k =-0.6000 0.3000 0.4000     band energies (ev):

     9.8166  10.3217  10.8794  11.5419  12.1583  12.4199  12.6099  12.7503
    15.5639  15.7458  19.0027  20.2492  21.3405  22.5573  24.0535  24.9450
    30.7343  31.3099  44.4575  44.5440

          k = 0.0000 0.3000 0.0000     band energies (ev):

     6.7908   6.9852  11.3199  11.3206  11.6985  11.7272  12.7441  13.5579
    13.5615  14.0751  14.5491  15.8635  35.2756  35.3168  36.3717  36.3851
    36.5601  36.9249  36.9405  37.0868

          k =-0.1000 0.4000 0.0000     band energies (ev):

     8.0197   8.3447  11.0103  11.1812  11.7448  12.3415  13.0118  13.3363
    13.3882  14.3071  14.7450  16.0303  30.7400  31.3998  33.8304  34.1390
    34.4497  34.5230  37.4479  37.8802

          k = 0.4000 0.0000-0.1000     band energies (ev):

     8.0196   8.3446  11.0103  11.1812  11.7457  12.3403  13.0117  13.3415
    13.3834  14.3083  14.7438  16.0304  30.7411  31.4010  33.8291  34.1432
    34.4419  34.5281  37.4463  37.8788

          k =-0.2000 0.5000 0.0000     band energies (ev):

     9.0309   9.8953  10.7361  10.9482  12.1088  12.8099  13.1056  13.1719
    13.8829  14.6545  15.6637  16.3790  25.7902  26.7240  31.6575  32.3599
    32.8033  33.1273  39.3804  39.7276

          k = 0.5000 0.0000-0.2000     band energies (ev):

     9.0310   9.8951  10.7357  10.9482  12.1107  12.8106  13.0940  13.1800
    13.8830  14.6571  15.6609  16.3799  25.7911  26.7250  31.6573  32.3604
    32.8026  33.1278  39.3788  39.7261

          k =-0.3000 0.6000 0.0000     band energies (ev):

     9.2262  10.7997  10.8205  10.9086  12.1787  12.6989  12.9337  13.7496
    14.8270  15.7900  16.3366  17.3885  21.9012  23.1980  30.3616  31.0230
    32.0813  32.4056  41.8680  42.0780

          k = 0.6000 0.0000-0.3000     band energies (ev):

     9.2265  10.8014  10.8152  10.9120  12.1797  12.6996  12.9302  13.7510
    14.8269  15.7919  16.3343  17.3890  21.9015  23.1986  30.3613  31.0227
    32.0811  32.4059  41.8664  42.0766

          k =-0.1000 0.5000-0.1000     band energies (ev):

     9.0412   9.7271  10.5125  11.2974  11.8899  12.7863  12.8774  13.4431
    13.8833  14.3419  15.3685  16.4195  28.7261  28.7957  29.4857  29.5462
    35.5542  35.7578  36.0544  36.0984

          k =-0.2000 0.6000-0.1000     band energies (ev):

     9.5449  10.2708  10.9377  11.1128  12.2122  12.3379  13.2388  13.3175
    14.7171  15.8668  15.9274  17.6921  24.1313  25.1283  27.3183  28.0663
    34.4199  34.8380  38.0260  38.3615

          k = 0.6000-0.1000-0.2000     band energies (ev):

     9.5453  10.2702  10.9381  11.1125  12.2112  12.3403  13.2302  13.3245
    14.7173  15.8817  15.9124  17.6923  24.1322  25.1293  27.3171  28.0650
    34.4214  34.8394  38.0243  38.3599

          k = 0.7000-0.3000-0.1000     band energies (ev):

     9.5324  10.4090  10.9444  11.3636  12.2626  12.3005  13.0669  13.5759
    14.8380  16.1526  17.8865  19.1503  21.3036  22.6090  26.7621  27.4891
    34.0000  34.4126  40.6146  40.6801

          k = 0.8000-0.3000-0.2000     band energies (ev):

     9.9352   9.9677  10.8663  11.7530  11.9854  12.6963  12.9217  13.2214
    15.2131  15.7804  18.8369  20.1347  22.5978  23.5954  23.6567  24.5626
    37.0338  37.3708  37.5521  37.5822

          k =-0.6000 0.3000 0.6000     band energies (ev):

     9.8291  10.2202  10.7369  11.0942  12.1507  12.2729  12.5819  12.6288
    15.6251  15.7614  16.6234  18.3750  24.1496  25.0767  27.3419  27.4699
    27.9428  28.2620  45.7868  46.0926

          k =-0.5000 0.3000 0.5000     band energies (ev):

     9.7622  10.1740  11.1690  11.3821  12.0765  12.5431  12.6214  12.6522
    15.6571  15.8151  18.4735  19.7378  21.4063  22.6772  26.9335  27.0026
    27.5464  27.7659  46.2157  46.4502

          k =-0.6000 0.4000 0.5000     band energies (ev):

    10.0544  10.3281  10.6582  11.7688  12.0508  12.1794  12.6399  12.6634
    15.7440  15.8038  19.3382  20.6137  22.8762  23.7050  23.8120  24.6408
    26.6665  27.3787  48.3000  48.5728

          k = 0.0000 0.5000 0.0000     band energies (ev):

     8.8882   9.4873  10.6443  11.6865  11.6889  12.4032  13.1974  13.6718
    13.8967  13.9068  14.8315  16.3584  31.0637  31.0638  31.7928  31.7931
    33.0150  33.1756  33.4017  33.7406

          k =-0.1000 0.6000 0.0000     band energies (ev):

     9.4428  10.1163  10.6492  11.7254  12.0493  12.4443  13.0680  13.9402
    14.3564  15.1890  15.5525  17.1436  26.6982  27.5099  28.8434  29.5256
    32.3121  32.8711  34.6024  35.1002

          k = 0.6000 0.0000-0.1000     band energies (ev):

     9.4429  10.1161  10.6493  11.7246  12.0499  12.4459  13.0662  13.9403
    14.3562  15.1921  15.5496  17.1437  26.6990  27.5110  28.8435  29.5255
    32.3123  32.8713  34.6008  35.0987

          k =-0.2000 0.7000 0.0000     band energies (ev):

     9.4960   9.9487  11.3534  11.6478  11.9704  12.2083  13.6642  13.8546
    14.5679  16.2370  17.7516  19.0166  22.5089  23.5722  27.5244  28.1478
    31.9047  32.5068  37.3051  37.6417

          k = 0.7000 0.0000-0.2000     band energies (ev):

     9.4964   9.9481  11.3548  11.6460  11.9670  12.2137  13.6590  13.8576
    14.5693  16.2368  17.7513  19.0164  22.5095  23.5730  27.5242  28.1474
    31.9048  32.5070  37.3034  37.6402

          k =-0.1000 0.7000-0.1000     band energies (ev):

     9.5628   9.6950  11.2925  11.7952  11.9204  12.5721  13.3780  13.9995
    14.9209  15.9052  17.5576  18.8886  25.0089  25.2513  25.8258  26.0136
    33.7260  34.0279  34.1897  34.6626

          k = 0.8000-0.2000-0.1000     band energies (ev):

     9.4945   9.6230  11.5781  11.6388  11.7516  12.8386  13.5338  13.9043
    15.2420  16.0748  20.1821  21.1426  21.8375  22.8470  24.5525  25.2845
    33.6031  34.1413  36.2989  36.5820

          k = 0.0000 0.7000 0.0000     band energies (ev):

     9.3987   9.6184  11.1013  11.9072  12.5118  12.5129  13.1126  14.7968
    14.7987  15.6195  17.0712  18.3923  26.5007  26.5009  27.1445  27.1446
    31.8379  32.0847  32.5006  32.8591

          k =-0.1000 0.8000 0.0000     band energies (ev):

     9.2666   9.3160  11.2831  11.4814  12.6783  12.8663  13.5802  15.0229
    15.2109  16.1428  19.7899  20.6683  23.4409  24.1391  25.1161  25.6415
    31.7420  32.4993  33.4670  34.1045

          k = 0.8000 0.0000-0.1000     band energies (ev):

     9.2669   9.3155  11.2832  11.4812  12.6764  12.8694  13.5792  15.0207
    15.2139  16.1424  19.7897  20.6680  23.4417  24.1398  25.1160  25.6412
    31.7422  32.4994  33.4656  34.1033

          k = 0.0000 0.9000 0.0000     band energies (ev):

     8.9974   9.0013  11.1047  11.1553  13.4354  13.4451  13.5655  15.9476
    15.9550  16.1282  21.9469  22.4489  23.6054  23.6071  24.0202  24.0206
    31.3686  31.8809  32.1772  32.6900

     Writing output data file Fe_nscf_e70_k10s3_nb20_so.save

     init_run     :      0.69s CPU      0.69s WALL (       1 calls)
     electrons    :     35.99s CPU     37.30s WALL (       1 calls)

     Called by init_run:
     wfcinit      :      0.00s CPU      0.00s WALL (       1 calls)
     potinit      :      0.07s CPU      0.08s WALL (       1 calls)

     Called by electrons:
     c_bands      :     35.99s CPU     37.30s WALL (       1 calls)
     v_of_rho     :      0.06s CPU      0.07s WALL (       1 calls)
     v_h          :      0.00s CPU      0.00s WALL (       1 calls)
     v_xc         :      0.06s CPU      0.07s WALL (       1 calls)

     Called by c_bands:
     init_us_2    :      0.04s CPU      0.05s WALL (      99 calls)
     cegterg      :     33.13s CPU     33.51s WALL (     103 calls)

     Called by sum_band:

     Called by *egterg:
     h_psi        :     19.89s CPU     20.21s WALL (    1603 calls)
     g_psi        :      0.27s CPU      0.28s WALL (    1401 calls)
     cdiaghg      :      3.01s CPU      3.01s WALL (    1500 calls)
     cegterg:over :      5.23s CPU      5.28s WALL (    1401 calls)
     cegterg:upda :      4.10s CPU      4.14s WALL (    1401 calls)
     cegterg:last :      2.03s CPU      2.04s WALL (     307 calls)

     Called by h_psi:
     h_psi:vloc   :     17.29s CPU     17.57s WALL (    1603 calls)
     h_psi:vnl    :      2.50s CPU      2.52s WALL (    1603 calls)
     add_vuspsi   :      1.26s CPU      1.27s WALL (    1603 calls)

     General routines
     calbec       :      1.24s CPU      1.24s WALL (    1603 calls)
     fft          :      0.01s CPU      0.01s WALL (      23 calls)
     fftw         :     13.45s CPU     13.69s WALL (   77092 calls)
     davcio       :      0.05s CPU      0.28s WALL (     198 calls)

     Parallel routines
     fft_scatter  :      1.22s CPU      1.24s WALL (   77115 calls)

     PWSCF        :    37.58s CPU        39.00s WALL


   This run was terminated on:  23:46: 4  30Jun2015            

=------------------------------------------------------------------------------=
   JOB DONE.
=------------------------------------------------------------------------------=
