
     Program PWSCF v.6.6 starts on  2Dec2020 at  9: 9: 8 

     This program is part of the open-source Quantum ESPRESSO suite
     for quantum simulation of materials; please cite
         "P. Giannozzi et al., J. Phys.:Condens. Matter 21 395502 (2009);
         "P. Giannozzi et al., J. Phys.:Condens. Matter 29 465901 (2017);
          URL http://www.quantum-espresso.org", 
     in publications or presentations arising from this work. More details at
     http://www.quantum-espresso.org/quote

     Parallel version (MPI), running on     3 processors

     MPI processes distributed on     1 nodes
     R & G space division:  proc/nbgrp/npool/nimage =       3
     Fft bands division:     nmany     =       1
     Waiting for input...
     Reading input from standard input

     Current dimensions of program PWSCF are:
     Max number of different atomic species (ntypx) = 10
     Max number of k-points (npk) =  40000
     Max angular momentum in pseudopotentials (lmaxx) =  3

     Subspace diagonalization in iterative solution of the eigenvalue problem:
     a serial algorithm will be used


     Parallelization info
     --------------------
     sticks:   dense  smooth     PW     G-vecs:    dense   smooth      PW
     Min        1034    1034    278               147040   147040   20312
     Max        1035    1035    279               147051   147051   20317
     Sum        3103    3103    835               441135   441135   60945



     bravais-lattice index     =            4
     lattice parameter (alat)  =      12.6872  a.u.
     unit-cell volume          =    5575.9936 (a.u.)^3
     number of atoms/cell      =            8
     number of atomic types    =            2
     number of electrons       =        70.00
     number of Kohn-Sham states=           70
     kinetic-energy cutoff     =      70.0000  Ry
     charge density cutoff     =     280.0000  Ry
     convergence threshold     =      1.0E-08
     mixing beta               =       0.7000
     number of iterations used =            8  plain     mixing
     Exchange-correlation= PZ
                           (   1   1   0   0   0   0   0)
     Noncollinear calculation with spin-orbit


     celldm(1)=  12.687201  celldm(2)=   0.000000  celldm(3)=   3.152784
     celldm(4)=   0.000000  celldm(5)=   0.000000  celldm(6)=   0.000000

     crystal axes: (cart. coord. in units of alat)
               a(1) = (   1.000000   0.000000   0.000000 )  
               a(2) = (  -0.500000   0.866025   0.000000 )  
               a(3) = (   0.000000   0.000000   3.152784 )  

     reciprocal axes: (cart. coord. in units 2 pi/alat)
               b(1) = (  1.000000  0.577350 -0.000000 )  
               b(2) = (  0.000000  1.154701  0.000000 )  
               b(3) = (  0.000000 -0.000000  0.317180 )  


     PseudoPot. # 1 for Cr read from file:
     ../../psps/Cr.upf
     MD5 check sum: b32cdf955d2375499d0ea06d1493a96a
     Pseudo is Norm-conserving + core correction, Zval = 14.0
     Generated using ONCVPSP code by D. R. Hamann
     Using radial grid of 1600 points, 10 beta functions with: 
                l(1) =   0
                l(2) =   0
                l(3) =   1
                l(4) =   1
                l(5) =   1
                l(6) =   1
                l(7) =   2
                l(8) =   2
                l(9) =   2
               l(10) =   2

     PseudoPot. # 2 for I  read from file:
     ../../psps/I.upf
     MD5 check sum: d0d4d45a39a9ecd37d4d9deb6bd296a3
     Pseudo is Norm-conserving + core correction, Zval =  7.0
     Generated using ONCVPSP code by D. R. Hamann
     Using radial grid of 1196 points, 10 beta functions with: 
                l(1) =   0
                l(2) =   0
                l(3) =   1
                l(4) =   1
                l(5) =   1
                l(6) =   1
                l(7) =   2
                l(8) =   2
                l(9) =   2
               l(10) =   2

     atomic species   valence    mass     pseudopotential
        Cr            14.00    51.99000     Cr( 1.00)
        I              7.00   126.90000     I ( 1.00)

     12 Sym. Ops., with inversion, found


                                    s                        frac. trans.

      isym =  1     identity                                     

 Time Reversal            0
 cryst.   s( 1) = (     1          0          0      )
                  (     0          1          0      )
                  (     0          0          1      )

 cart.    s( 1) = (  1.0000000  0.0000000  0.0000000 )
                  (  0.0000000  1.0000000  0.0000000 )
                  (  0.0000000  0.0000000  1.0000000 )


      isym =  2     180 deg rotation - cart. axis [0,1,0]        

 Time Reversal            1
 cryst.   s( 2) = (    -1          0          0      )
                  (     1          1          0      )
                  (     0          0         -1      )

 cart.    s( 2) = ( -1.0000000  0.0000000  0.0000000 )
                  (  0.0000000  1.0000000  0.0000000 )
                  (  0.0000000  0.0000000 -1.0000000 )


      isym =  3     120 deg rotation - cryst. axis [0,0,1]       

 Time Reversal            0
 cryst.   s( 3) = (     0          1          0      )
                  (    -1         -1          0      )
                  (     0          0          1      )

 cart.    s( 3) = ( -0.5000000 -0.8660254  0.0000000 )
                  (  0.8660254 -0.5000000  0.0000000 )
                  (  0.0000000  0.0000000  1.0000000 )


      isym =  4     120 deg rotation - cryst. axis [0,0,-1]      

 Time Reversal            0
 cryst.   s( 4) = (    -1         -1          0      )
                  (     1          0          0      )
                  (     0          0          1      )

 cart.    s( 4) = ( -0.5000000  0.8660254  0.0000000 )
                  ( -0.8660254 -0.5000000  0.0000000 )
                  (  0.0000000  0.0000000  1.0000000 )


      isym =  5     180 deg rotation - cryst. axis [1,-1,0]      

 Time Reversal            1
 cryst.   s( 5) = (     0         -1          0      )
                  (    -1          0          0      )
                  (     0          0         -1      )

 cart.    s( 5) = (  0.5000000 -0.8660254  0.0000000 )
                  ( -0.8660254 -0.5000000  0.0000000 )
                  (  0.0000000  0.0000000 -1.0000000 )


      isym =  6     180 deg rotation - cryst. axis [2,1,0]       

 Time Reversal            1
 cryst.   s( 6) = (     1          1          0      )
                  (     0         -1          0      )
                  (     0          0         -1      )

 cart.    s( 6) = (  0.5000000  0.8660254  0.0000000 )
                  (  0.8660254 -0.5000000  0.0000000 )
                  (  0.0000000  0.0000000 -1.0000000 )


      isym =  7     inversion                                    

 Time Reversal            0
 cryst.   s( 7) = (    -1          0          0      )
                  (     0         -1          0      )
                  (     0          0         -1      )

 cart.    s( 7) = ( -1.0000000  0.0000000  0.0000000 )
                  (  0.0000000 -1.0000000  0.0000000 )
                  (  0.0000000  0.0000000 -1.0000000 )


      isym =  8     inv. 180 deg rotation - cart. axis [0,1,0]   

 Time Reversal            1
 cryst.   s( 8) = (     1          0          0      )
                  (    -1         -1          0      )
                  (     0          0          1      )

 cart.    s( 8) = (  1.0000000  0.0000000  0.0000000 )
                  (  0.0000000 -1.0000000  0.0000000 )
                  (  0.0000000  0.0000000  1.0000000 )


      isym =  9     inv. 120 deg rotation - cryst. axis [0,0,1]  

 Time Reversal            0
 cryst.   s( 9) = (     0         -1          0      )
                  (     1          1          0      )
                  (     0          0         -1      )

 cart.    s( 9) = (  0.5000000  0.8660254  0.0000000 )
                  ( -0.8660254  0.5000000  0.0000000 )
                  (  0.0000000  0.0000000 -1.0000000 )


      isym = 10     inv. 120 deg rotation - cryst. axis [0,0,-1] 

 Time Reversal            0
 cryst.   s(10) = (     1          1          0      )
                  (    -1          0          0      )
                  (     0          0         -1      )

 cart.    s(10) = (  0.5000000 -0.8660254  0.0000000 )
                  (  0.8660254  0.5000000  0.0000000 )
                  (  0.0000000  0.0000000 -1.0000000 )


      isym = 11     inv. 180 deg rotation - cryst. axis [1,-1,0] 

 Time Reversal            1
 cryst.   s(11) = (     0          1          0      )
                  (     1          0          0      )
                  (     0          0          1      )

 cart.    s(11) = ( -0.5000000  0.8660254  0.0000000 )
                  (  0.8660254  0.5000000  0.0000000 )
                  (  0.0000000  0.0000000  1.0000000 )


      isym = 12     inv. 180 deg rotation - cryst. axis [2,1,0]  

 Time Reversal            1
 cryst.   s(12) = (    -1         -1          0      )
                  (     0          1          0      )
                  (     0          0          1      )

 cart.    s(12) = ( -0.5000000 -0.8660254  0.0000000 )
                  ( -0.8660254  0.5000000  0.0000000 )
                  (  0.0000000  0.0000000  1.0000000 )


     the magnetic double point group is D_3d (-3m)  [S_6 (-3)   ]
     using the double point group S_6 (-3)   
     there are 12 classes and  6 irreducible representations
     the character table:

       E     -E    C3    -C3   C3^2  -C3^2  i    -i    S6^5  -S6^5 S6    -S6  
                                                                              
G_4+   1.00 -1.00  0.50 -0.50  0.50 -0.50  1.00 -1.00  0.50 -0.50  0.50 -0.50
G_5+   1.00 -1.00  0.50 -0.50  0.50 -0.50  1.00 -1.00  0.50 -0.50  0.50 -0.50
G_6+   1.00 -1.00 -1.00  1.00 -1.00  1.00  1.00 -1.00 -1.00  1.00 -1.00  1.00
G_4-   1.00 -1.00  0.50 -0.50  0.50 -0.50 -1.00  1.00 -0.50  0.50 -0.50  0.50
G_5-   1.00 -1.00  0.50 -0.50  0.50 -0.50 -1.00  1.00 -0.50  0.50 -0.50  0.50
G_6-   1.00 -1.00 -1.00  1.00 -1.00  1.00 -1.00  1.00  1.00 -1.00  1.00 -1.00

     imaginary part

       E     -E    C3    -C3   C3^2  -C3^2  i    -i    S6^5  -S6^5 S6    -S6  
                                                                              
G_4+   0.00  0.00  0.87 -0.87 -0.87  0.87  0.00  0.00  0.87 -0.87 -0.87  0.87
G_5+   0.00  0.00 -0.87  0.87  0.87 -0.87  0.00  0.00 -0.87  0.87  0.87 -0.87
G_6+   0.00  0.00  0.00  0.00  0.00  0.00  0.00  0.00  0.00  0.00  0.00  0.00
G_4-   0.00  0.00  0.87 -0.87 -0.87  0.87  0.00  0.00 -0.87  0.87  0.87 -0.87
G_5-   0.00  0.00 -0.87  0.87  0.87 -0.87  0.00  0.00  0.87 -0.87 -0.87  0.87
G_6-   0.00  0.00  0.00  0.00  0.00  0.00  0.00  0.00  0.00  0.00  0.00  0.00

     the symmetry operations in each class and the name of the first element:

     E             1
          identity                                               
     -E           -1
          identity E                                             
     C3            2
          120 deg rotation - cryst. axis [0,0,1]                 
     -C3          -2
          120 deg rotation - cryst. axis [0,0,1] E               
     C3^2          3
          120 deg rotation - cryst. axis [0,0,-1]                
     -C3^2        -3
          120 deg rotation - cryst. axis [0,0,-1] E              
      i            4
          inversion                                              
     -i           -4
          inversion E                                            
     S6^5          5
          inv. 120 deg rotation - cryst. axis [0,0,1]            
     -S6^5        -5
          inv. 120 deg rotation - cryst. axis [0,0,1] E          
     S6            6
          inv. 120 deg rotation - cryst. axis [0,0,-1]           
     -S6          -6
          inv. 120 deg rotation - cryst. axis [0,0,-1] E         

   Cartesian axes

     site n.     atom                  positions (alat units)
         1           Cr  tau(   1) = (   0.5000000   0.2886751   0.0000000  )
         2           Cr  tau(   2) = (  -0.0000000   0.5773503   0.0000000  )
         3           I   tau(   3) = (   0.3254097   0.5636261  -0.2277343  )
         4           I   tau(   4) = (  -0.1745903   0.3023993  -0.2277343  )
         5           I   tau(   5) = (   0.3491807   0.0000000  -0.2277343  )
         6           I   tau(   6) = (   0.1745903   0.3023993   0.2277343  )
         7           I   tau(   7) = (   0.6508193   0.0000000   0.2277343  )
         8           I   tau(   8) = (  -0.3254097   0.5636261   0.2277343  )

   Crystallographic axes

     site n.     atom                  positions (cryst. coord.)
         1           Cr  tau(   1) = (  0.6666667  0.3333333  0.0000000  )
         2           Cr  tau(   2) = (  0.3333333  0.6666667  0.0000000  )
         3           I   tau(   3) = (  0.6508193  0.6508193 -0.0722328  )
         4           I   tau(   4) = (  0.0000000  0.3491807 -0.0722328  )
         5           I   tau(   5) = (  0.3491807  0.0000000 -0.0722328  )
         6           I   tau(   6) = (  0.3491807  0.3491807  0.0722328  )
         7           I   tau(   7) = (  0.6508193  0.0000000  0.0722328  )
         8           I   tau(   8) = (  0.0000000  0.6508193  0.0722328  )

     number of k points=     4
                       cart. coord. in units 2pi/alat
        k(    1) = (   0.0000000   0.0000000   0.0000000), wk =   0.0625000
        k(    2) = (   0.0000000   0.2886751   0.0000000), wk =   0.3750000
        k(    3) = (   0.0000000  -0.5773503   0.0000000), wk =   0.1875000
        k(    4) = (   0.2500000   0.4330127   0.0000000), wk =   0.3750000

                       cryst. coord.
        k(    1) = (   0.0000000   0.0000000   0.0000000), wk =   0.0625000
        k(    2) = (   0.0000000   0.2500000   0.0000000), wk =   0.3750000
        k(    3) = (   0.0000000  -0.5000000   0.0000000), wk =   0.1875000
        k(    4) = (   0.2500000   0.2500000   0.0000000), wk =   0.3750000

     Dense  grid:   441135 G-vectors     FFT dimensions: (  72,  72, 216)

     Dynamical RAM for                 wfc:      39.27 MB

     Dynamical RAM for     wfc (w. buffer):     196.34 MB

     Dynamical RAM for           str. fact:       4.49 MB

     Dynamical RAM for           local pot:       0.00 MB

     Dynamical RAM for          nlocal pot:      76.29 MB

     Dynamical RAM for                qrad:       7.04 MB

     Dynamical RAM for          rho,v,vnew:      61.10 MB

     Dynamical RAM for               rhoin:      20.37 MB

     Dynamical RAM for            rho*nmix:     143.60 MB

     Dynamical RAM for           G-vectors:       9.54 MB

     Dynamical RAM for          h,s,v(r/c):       0.90 MB

     Dynamical RAM for          <psi|beta>:       0.58 MB

     Dynamical RAM for                 psi:      78.54 MB

     Dynamical RAM for                hpsi:      78.54 MB

     Dynamical RAM for      wfcinit/wfcrot:      74.23 MB

     Estimated static dynamical RAM per process >     548.27 MB

     Estimated max dynamical RAM per process >     706.82 MB

     Estimated total dynamical RAM >       2.07 GB
     Generating pointlists ...
     new r_m :   0.1639 (alat units)  2.0799 (a.u.) for type    1
     new r_m :   0.1639 (alat units)  2.0799 (a.u.) for type    2

     Initial potential from superposition of free atoms

     starting charge   69.99738, renormalised to   70.00000

     negative rho (up, down):  1.761E-05 9.661E-03

 ==============================================================================
     atom number    1 relative position :    0.5000   0.2887   0.0000
     charge :    12.666992
     magnetization :          0.000000    0.000000   12.304368
     magnetization/charge:    0.000000    0.000000    0.971373
     polar coord.: r, theta, phi [deg] :    12.304368    0.000000  360.000000

 ==============================================================================

 ==============================================================================
     atom number    2 relative position :   -0.0000   0.5774   0.0000
     charge :    12.666992
     magnetization :          0.000000    0.000000   12.304368
     magnetization/charge:    0.000000    0.000000    0.971373
     polar coord.: r, theta, phi [deg] :    12.304368    0.000000  360.000000

 ==============================================================================

 ==============================================================================
     atom number    3 relative position :    0.3254   0.5636  -0.2277
     charge :     3.938079
     magnetization :          0.000000    0.000000    0.084788
     magnetization/charge:    0.000000    0.000000    0.021530
     polar coord.: r, theta, phi [deg] :     0.084788    0.000000  360.000000

 ==============================================================================

 ==============================================================================
     atom number    4 relative position :   -0.1746   0.3024  -0.2277
     charge :     3.938079
     magnetization :          0.000000    0.000000    0.084788
     magnetization/charge:    0.000000    0.000000    0.021530
     polar coord.: r, theta, phi [deg] :     0.084788    0.000000  360.000000

 ==============================================================================

 ==============================================================================
     atom number    5 relative position :    0.3492   0.0000  -0.2277
     charge :     3.938079
     magnetization :          0.000000    0.000000    0.084788
     magnetization/charge:    0.000000    0.000000    0.021530
     polar coord.: r, theta, phi [deg] :     0.084788    0.000000  360.000000

 ==============================================================================

 ==============================================================================
     atom number    6 relative position :    0.1746   0.3024   0.2277
     charge :     3.938079
     magnetization :          0.000000    0.000000    0.084788
     magnetization/charge:    0.000000    0.000000    0.021530
     polar coord.: r, theta, phi [deg] :     0.084788    0.000000  360.000000

 ==============================================================================

 ==============================================================================
     atom number    7 relative position :    0.6508   0.0000   0.2277
     charge :     3.938079
     magnetization :          0.000000    0.000000    0.084788
     magnetization/charge:    0.000000    0.000000    0.021530
     polar coord.: r, theta, phi [deg] :     0.084788    0.000000  360.000000

 ==============================================================================

 ==============================================================================
     atom number    8 relative position :   -0.3254   0.5636   0.2277
     charge :     3.938079
     magnetization :          0.000000    0.000000    0.084788
     magnetization/charge:    0.000000    0.000000    0.021530
     polar coord.: r, theta, phi [deg] :     0.084788    0.000000  360.000000

 ==============================================================================
     Starting wfcs are   88 randomized atomic wfcs

     total cpu time spent up to now is       99.8 secs

     Self-consistent Calculation

     iteration #  1     ecut=    70.00 Ry     beta= 0.70
     Davidson diagonalization with overlap
     ethr =  1.00E-02,  avg # of iterations =  2.0

     negative rho (up, down):  0.000E+00 1.581E-02

     total cpu time spent up to now is      349.3 secs

     total energy              =    -511.29513726 Ry
     estimated scf accuracy    <       4.81696101 Ry

     total magnetization       =    -0.00    -0.00     6.14 Bohr mag/cell
     absolute magnetization    =    10.38 Bohr mag/cell

     iteration #  2     ecut=    70.00 Ry     beta= 0.70
     Davidson diagonalization with overlap
     ethr =  6.88E-03,  avg # of iterations =  2.0

     negative rho (up, down):  0.000E+00 7.546E-03

     total cpu time spent up to now is      594.6 secs

     total energy              =    -511.54229543 Ry
     estimated scf accuracy    <       1.02729147 Ry

     total magnetization       =    -0.00    -0.00     6.19 Bohr mag/cell
     absolute magnetization    =    10.65 Bohr mag/cell

     iteration #  3     ecut=    70.00 Ry     beta= 0.70
     Davidson diagonalization with overlap
     ethr =  1.47E-03,  avg # of iterations =  6.5

     negative rho (up, down):  0.000E+00 1.702E-02

     total cpu time spent up to now is      958.0 secs

     total energy              =    -511.48566805 Ry
     estimated scf accuracy    <       3.64776151 Ry

     total magnetization       =     0.00    -0.00     6.00 Bohr mag/cell
     absolute magnetization    =     6.78 Bohr mag/cell

     iteration #  4     ecut=    70.00 Ry     beta= 0.70
     Davidson diagonalization with overlap
     ethr =  1.47E-03,  avg # of iterations =  8.2

     negative rho (up, down):  0.000E+00 1.598E-02

     total cpu time spent up to now is     1318.8 secs

     total energy              =    -512.09351582 Ry
     estimated scf accuracy    <       0.09154742 Ry

     total magnetization       =     0.00    -0.00     6.06 Bohr mag/cell
     absolute magnetization    =     8.29 Bohr mag/cell

     iteration #  5     ecut=    70.00 Ry     beta= 0.70
     Davidson diagonalization with overlap
     ethr =  1.31E-04,  avg # of iterations =  7.5

     negative rho (up, down):  0.000E+00 1.458E-02

     total cpu time spent up to now is     1664.5 secs

     total energy              =    -512.12123464 Ry
     estimated scf accuracy    <       0.09361939 Ry

     total magnetization       =    -0.00     0.00     6.05 Bohr mag/cell
     absolute magnetization    =     7.67 Bohr mag/cell

     iteration #  6     ecut=    70.00 Ry     beta= 0.70
     Davidson diagonalization with overlap
     ethr =  1.31E-04,  avg # of iterations =  2.2

     negative rho (up, down):  3.443E-07 9.527E-03

     total cpu time spent up to now is     1880.4 secs

     total energy              =    -512.10455574 Ry
     estimated scf accuracy    <       0.04653473 Ry

     total magnetization       =    -0.00     0.00     6.05 Bohr mag/cell
     absolute magnetization    =     7.52 Bohr mag/cell

     iteration #  7     ecut=    70.00 Ry     beta= 0.70
     Davidson diagonalization with overlap
     ethr =  6.65E-05,  avg # of iterations =  8.5

     negative rho (up, down):  0.000E+00 8.450E-03

     total cpu time spent up to now is     2219.1 secs

     total energy              =    -512.12120028 Ry
     estimated scf accuracy    <       0.05754687 Ry

     total magnetization       =     0.00    -0.00     6.02 Bohr mag/cell
     absolute magnetization    =     6.86 Bohr mag/cell

     iteration #  8     ecut=    70.00 Ry     beta= 0.70
     Davidson diagonalization with overlap
     ethr =  6.65E-05,  avg # of iterations =  2.5

     negative rho (up, down):  2.388E-06 7.909E-03

     total cpu time spent up to now is     2448.6 secs

     total energy              =    -512.12027921 Ry
     estimated scf accuracy    <       0.01270655 Ry

     total magnetization       =    -0.00    -0.00     6.02 Bohr mag/cell
     absolute magnetization    =     6.95 Bohr mag/cell

     iteration #  9     ecut=    70.00 Ry     beta= 0.70
     Davidson diagonalization with overlap
     ethr =  1.82E-05,  avg # of iterations =  7.2

     negative rho (up, down):  1.973E-07 8.139E-03

     total cpu time spent up to now is     2865.8 secs

     total energy              =    -512.12735484 Ry
     estimated scf accuracy    <       0.02259196 Ry

     total magnetization       =     0.00     0.00     6.02 Bohr mag/cell
     absolute magnetization    =     7.00 Bohr mag/cell

     iteration # 10     ecut=    70.00 Ry     beta= 0.70
     Davidson diagonalization with overlap
     ethr =  1.82E-05,  avg # of iterations =  1.5

     negative rho (up, down):  0.000E+00 7.796E-03

     total cpu time spent up to now is     3068.8 secs

     total energy              =    -512.12514965 Ry
     estimated scf accuracy    <       0.01287775 Ry

     total magnetization       =    -0.00    -0.00     6.02 Bohr mag/cell
     absolute magnetization    =     6.97 Bohr mag/cell

     iteration # 11     ecut=    70.00 Ry     beta= 0.70
     Davidson diagonalization with overlap
     ethr =  1.82E-05,  avg # of iterations =  3.8

     negative rho (up, down):  0.000E+00 7.904E-03

     total cpu time spent up to now is     3304.9 secs

     total energy              =    -512.12617392 Ry
     estimated scf accuracy    <       0.00158572 Ry

     total magnetization       =     0.00    -0.00     6.02 Bohr mag/cell
     absolute magnetization    =     6.95 Bohr mag/cell

     iteration # 12     ecut=    70.00 Ry     beta= 0.70
     Davidson diagonalization with overlap
     ethr =  2.27E-06,  avg # of iterations =  5.5

     negative rho (up, down):  0.000E+00 7.823E-03

     total cpu time spent up to now is     3617.8 secs

     total energy              =    -512.12679210 Ry
     estimated scf accuracy    <       0.00010056 Ry

     total magnetization       =    -0.00     0.00     6.02 Bohr mag/cell
     absolute magnetization    =     6.92 Bohr mag/cell

     iteration # 13     ecut=    70.00 Ry     beta= 0.70
     Davidson diagonalization with overlap
     ethr =  1.44E-07,  avg # of iterations =  5.2

     negative rho (up, down):  0.000E+00 7.888E-03

     total cpu time spent up to now is     3904.3 secs

     total energy              =    -512.12678506 Ry
     estimated scf accuracy    <       0.00017313 Ry

     total magnetization       =    -0.00    -0.00     6.02 Bohr mag/cell
     absolute magnetization    =     6.92 Bohr mag/cell

     iteration # 14     ecut=    70.00 Ry     beta= 0.70
     Davidson diagonalization with overlap
     ethr =  1.44E-07,  avg # of iterations =  4.5

     negative rho (up, down):  0.000E+00 7.898E-03

     total cpu time spent up to now is     4157.8 secs

     total energy              =    -512.12679569 Ry
     estimated scf accuracy    <       0.00002768 Ry

     total magnetization       =     0.00    -0.00     6.02 Bohr mag/cell
     absolute magnetization    =     6.93 Bohr mag/cell

     iteration # 15     ecut=    70.00 Ry     beta= 0.70
     Davidson diagonalization with overlap
     ethr =  3.95E-08,  avg # of iterations =  5.8

     negative rho (up, down):  0.000E+00 7.898E-03

     total cpu time spent up to now is     4391.1 secs

     total energy              =    -512.12679694 Ry
     estimated scf accuracy    <       0.00001007 Ry

     total magnetization       =    -0.00     0.00     6.02 Bohr mag/cell
     absolute magnetization    =     6.93 Bohr mag/cell

     iteration # 16     ecut=    70.00 Ry     beta= 0.70
     Davidson diagonalization with overlap
     ethr =  1.44E-08,  avg # of iterations =  5.8

     negative rho (up, down):  0.000E+00 7.888E-03

     total cpu time spent up to now is     4718.7 secs

     total energy              =    -512.12680103 Ry
     estimated scf accuracy    <       0.00000039 Ry

     total magnetization       =     0.00    -0.00     6.02 Bohr mag/cell
     absolute magnetization    =     6.93 Bohr mag/cell

     iteration # 17     ecut=    70.00 Ry     beta= 0.70
     Davidson diagonalization with overlap
     ethr =  5.58E-10,  avg # of iterations =  9.8

     negative rho (up, down):  0.000E+00 7.888E-03

     total cpu time spent up to now is     5179.4 secs

     total energy              =    -512.12680141 Ry
     estimated scf accuracy    <       0.00000435 Ry

     total magnetization       =    -0.00    -0.00     6.02 Bohr mag/cell
     absolute magnetization    =     6.93 Bohr mag/cell

     iteration # 18     ecut=    70.00 Ry     beta= 0.70
     Davidson diagonalization with overlap
     ethr =  5.58E-10,  avg # of iterations =  1.0

     negative rho (up, down):  0.000E+00 7.898E-03

     total cpu time spent up to now is     5380.4 secs

     total energy              =    -512.12680133 Ry
     estimated scf accuracy    <       0.00000431 Ry

     total magnetization       =    -0.00     0.00     6.02 Bohr mag/cell
     absolute magnetization    =     6.93 Bohr mag/cell

     iteration # 19     ecut=    70.00 Ry     beta= 0.70
     Davidson diagonalization with overlap
     ethr =  5.58E-10,  avg # of iterations =  1.2

     negative rho (up, down):  0.000E+00 7.898E-03

     total cpu time spent up to now is     5575.9 secs

     total energy              =    -512.12680070 Ry
     estimated scf accuracy    <       0.00000387 Ry

     total magnetization       =     0.00     0.00     6.02 Bohr mag/cell
     absolute magnetization    =     6.93 Bohr mag/cell

     iteration # 20     ecut=    70.00 Ry     beta= 0.70
     Davidson diagonalization with overlap
     ethr =  5.58E-10,  avg # of iterations =  7.0

     negative rho (up, down):  0.000E+00 7.898E-03

     total cpu time spent up to now is     5929.3 secs

     total energy              =    -512.12680085 Ry
     estimated scf accuracy    <       0.00000047 Ry

     total magnetization       =     0.00     0.00     6.02 Bohr mag/cell
     absolute magnetization    =     6.93 Bohr mag/cell

     iteration # 21     ecut=    70.00 Ry     beta= 0.70
     Davidson diagonalization with overlap
     ethr =  5.58E-10,  avg # of iterations =  5.0

     negative rho (up, down):  0.000E+00 7.898E-03

     total cpu time spent up to now is     6170.4 secs

     total energy              =    -512.12680090 Ry
     estimated scf accuracy    <       0.00000006 Ry

     total magnetization       =    -0.00     0.00     6.02 Bohr mag/cell
     absolute magnetization    =     6.93 Bohr mag/cell

     iteration # 22     ecut=    70.00 Ry     beta= 0.70
     Davidson diagonalization with overlap
     ethr =  8.77E-11,  avg # of iterations =  7.0

     negative rho (up, down):  0.000E+00 7.898E-03

 ==============================================================================
     atom number    1 relative position :    0.5000   0.2887   0.0000
     charge :    12.418022
     magnetization :         -0.000000   -0.000000    2.846210
     magnetization/charge:   -0.000000   -0.000000    0.229200
     polar coord.: r, theta, phi [deg] :     2.846210    0.000000  360.000000

 ==============================================================================

 ==============================================================================
     atom number    2 relative position :   -0.0000   0.5774   0.0000
     charge :    12.418022
     magnetization :         -0.000000   -0.000000    2.846210
     magnetization/charge:   -0.000000   -0.000000    0.229200
     polar coord.: r, theta, phi [deg] :     2.846210    0.000000  360.000000

 ==============================================================================

 ==============================================================================
     atom number    3 relative position :    0.3254   0.5636  -0.2277
     charge :     3.962029
     magnetization :          0.000453    0.000784   -0.035059
     magnetization/charge:    0.000114    0.000198   -0.008849
     polar coord.: r, theta, phi [deg] :     0.035070  178.520877   60.000000

 ==============================================================================

 ==============================================================================
     atom number    4 relative position :   -0.1746   0.3024  -0.2277
     charge :     3.962029
     magnetization :          0.000453   -0.000784   -0.035059
     magnetization/charge:    0.000114   -0.000198   -0.008849
     polar coord.: r, theta, phi [deg] :     0.035070  178.520877  -60.000000

 ==============================================================================

 ==============================================================================
     atom number    5 relative position :    0.3492   0.0000  -0.2277
     charge :     3.962029
     magnetization :         -0.000905    0.000000   -0.035059
     magnetization/charge:   -0.000228    0.000000   -0.008849
     polar coord.: r, theta, phi [deg] :     0.035070  178.520877  180.000000

 ==============================================================================

 ==============================================================================
     atom number    6 relative position :    0.1746   0.3024   0.2277
     charge :     3.962029
     magnetization :          0.000453    0.000784   -0.035059
     magnetization/charge:    0.000114    0.000198   -0.008849
     polar coord.: r, theta, phi [deg] :     0.035070  178.520877   60.000000

 ==============================================================================

 ==============================================================================
     atom number    7 relative position :    0.6508   0.0000   0.2277
     charge :     3.962029
     magnetization :         -0.000905   -0.000000   -0.035059
     magnetization/charge:   -0.000228   -0.000000   -0.008849
     polar coord.: r, theta, phi [deg] :     0.035070  178.520877 -180.000000

 ==============================================================================

 ==============================================================================
     atom number    8 relative position :   -0.3254   0.5636   0.2277
     charge :     3.962029
     magnetization :          0.000453   -0.000784   -0.035059
     magnetization/charge:    0.000114   -0.000198   -0.008849
     polar coord.: r, theta, phi [deg] :     0.035070  178.520877  -60.000000

 ==============================================================================

     total cpu time spent up to now is     6464.2 secs

     End of self-consistent calculation

          k = 0.0000 0.0000 0.0000 ( 55043 PWs)   bands (ev):

   -74.1503 -74.1499 -71.2958 -71.2953 -46.3079 -46.3041 -45.9917 -45.9904
   -45.5456 -45.5413 -43.2841 -43.2792 -42.9965 -42.9948 -42.6874 -42.6818
   -15.6328 -15.5942 -14.7628 -14.7618 -14.4021 -14.3994 -14.3975 -14.3947
   -14.3060 -14.3051 -14.3018 -14.3007  -7.2418  -6.9878  -6.7451  -6.5360
    -6.4081  -6.3967  -6.2515  -6.1896  -6.1101  -6.0569  -5.9336  -5.7140
    -5.6489  -5.6394  -5.2570  -5.2238  -5.1084  -4.9838  -4.8434  -4.7188
    -4.6268  -4.5907  -4.5047  -4.2807  -4.2475  -4.1029  -3.9003  -3.8586
    -3.5631  -3.4982  -3.2746  -3.2314  -3.0271  -2.8762  -2.8745  -2.8562
    -2.7977  -2.7968  -2.6577  -2.4657  -2.0827  -2.0114

     occupation numbers 
     1.0000   1.0000   1.0000   1.0000   1.0000   1.0000   1.0000   1.0000
     1.0000   1.0000   1.0000   1.0000   1.0000   1.0000   1.0000   1.0000
     1.0000   1.0000   1.0000   1.0000   1.0000   1.0000   1.0000   1.0000
     1.0000   1.0000   1.0000   1.0000   1.0000   1.0000   1.0000   1.0000
     1.0000   1.0000   1.0000   1.0000   1.0000   1.0000   1.0000   1.0000
     1.0000   1.0000   1.0000   1.0000   1.0000   1.0000   1.0000   1.0000
     1.0000   1.0000   1.0000   1.0000   1.0000   1.0000   1.0000   1.0000
     1.0000   1.0000   1.0000   1.0000   1.0000   1.0000   1.0000   1.0000
     1.0000   1.0000   1.0000   1.0000   1.0000   1.0000

          k = 0.0000 0.2887 0.0000 ( 55111 PWs)   bands (ev):

   -74.1503 -74.1499 -71.2958 -71.2953 -46.3074 -46.3046 -45.9916 -45.9906
   -45.5450 -45.5418 -43.2835 -43.2799 -42.9963 -42.9950 -42.6867 -42.6826
   -15.4850 -15.4491 -14.6791 -14.6788 -14.6048 -14.5942 -14.4704 -14.4668
   -14.3290 -14.3272 -14.3250 -14.3212  -7.2341  -7.0041  -6.7076  -6.4992
    -6.3948  -6.3536  -6.2694  -6.2500  -6.1741  -6.0733  -5.6768  -5.5774
    -5.4184  -5.3326  -5.1808  -5.0073  -4.9991  -4.8291  -4.7282  -4.6146
    -4.5734  -4.5167  -4.3235  -4.2912  -4.1631  -4.0984  -4.0269  -3.9211
    -3.7461  -3.6250  -3.4569  -3.3283  -3.1845  -3.0842  -3.0699  -2.9520
    -2.7990  -2.7398  -2.6944  -2.5785  -2.4754  -2.1947

     occupation numbers 
     1.0000   1.0000   1.0000   1.0000   1.0000   1.0000   1.0000   1.0000
     1.0000   1.0000   1.0000   1.0000   1.0000   1.0000   1.0000   1.0000
     1.0000   1.0000   1.0000   1.0000   1.0000   1.0000   1.0000   1.0000
     1.0000   1.0000   1.0000   1.0000   1.0000   1.0000   1.0000   1.0000
     1.0000   1.0000   1.0000   1.0000   1.0000   1.0000   1.0000   1.0000
     1.0000   1.0000   1.0000   1.0000   1.0000   1.0000   1.0000   1.0000
     1.0000   1.0000   1.0000   1.0000   1.0000   1.0000   1.0000   1.0000
     1.0000   1.0000   1.0000   1.0000   1.0000   1.0000   1.0000   1.0000
     1.0000   1.0000   1.0000   1.0000   1.0000   1.0000

          k = 0.0000-0.5774 0.0000 ( 55166 PWs)   bands (ev):

   -74.1502 -74.1501 -71.2956 -71.2955 -46.3067 -46.3054 -45.9913 -45.9909
   -45.5442 -45.5427 -43.2825 -43.2809 -42.9959 -42.9953 -42.6856 -42.6837
   -15.1953 -15.1632 -14.9422 -14.9244 -14.5220 -14.5190 -14.5151 -14.5147
   -14.4527 -14.4491 -14.3567 -14.3495  -7.2610  -7.0424  -6.5256  -6.4437
    -6.3721  -6.3286  -6.1074  -6.0202  -5.9523  -5.9315  -5.5788  -5.4971
    -5.4809  -5.2460  -5.2393  -5.0325  -5.0130  -4.9393  -4.8313  -4.6531
    -4.5962  -4.4788  -4.3709  -4.2894  -4.2817  -3.9587  -3.8058  -3.7461
    -3.7057  -3.5909  -3.5655  -3.3885  -3.2882  -3.2367  -3.1519  -3.0372
    -2.8115  -2.7879  -2.6721  -2.5762  -2.5434  -2.2952

     occupation numbers 
     1.0000   1.0000   1.0000   1.0000   1.0000   1.0000   1.0000   1.0000
     1.0000   1.0000   1.0000   1.0000   1.0000   1.0000   1.0000   1.0000
     1.0000   1.0000   1.0000   1.0000   1.0000   1.0000   1.0000   1.0000
     1.0000   1.0000   1.0000   1.0000   1.0000   1.0000   1.0000   1.0000
     1.0000   1.0000   1.0000   1.0000   1.0000   1.0000   1.0000   1.0000
     1.0000   1.0000   1.0000   1.0000   1.0000   1.0000   1.0000   1.0000
     1.0000   1.0000   1.0000   1.0000   1.0000   1.0000   1.0000   1.0000
     1.0000   1.0000   1.0000   1.0000   1.0000   1.0000   1.0000   1.0000
     1.0000   1.0000   1.0000   1.0000   1.0000   1.0000

          k = 0.2500 0.4330 0.0000 ( 55183 PWs)   bands (ev):

   -74.1502 -74.1501 -71.2957 -71.2955 -46.3067 -46.3054 -45.9913 -45.9909
   -45.5442 -45.5427 -43.2825 -43.2809 -42.9960 -42.9954 -42.6856 -42.6837
   -15.2296 -15.1985 -14.8399 -14.8199 -14.6159 -14.6120 -14.5458 -14.5451
   -14.3964 -14.3935 -14.3586 -14.3530  -7.0176  -6.7999  -6.7066  -6.4970
    -6.3733  -6.3228  -6.2012  -6.1713  -6.0581  -6.0192  -5.6582  -5.5504
    -5.5253  -5.3718  -5.2338  -5.1290  -4.9552  -4.8369  -4.7249  -4.6585
    -4.5803  -4.4611  -4.2067  -4.1466  -4.1111  -4.0268  -3.8665  -3.7990
    -3.7189  -3.5790  -3.5480  -3.4030  -3.3419  -3.2476  -3.0859  -3.0101
    -2.8719  -2.7726  -2.6707  -2.5648  -2.5252  -2.2841

     occupation numbers 
     1.0000   1.0000   1.0000   1.0000   1.0000   1.0000   1.0000   1.0000
     1.0000   1.0000   1.0000   1.0000   1.0000   1.0000   1.0000   1.0000
     1.0000   1.0000   1.0000   1.0000   1.0000   1.0000   1.0000   1.0000
     1.0000   1.0000   1.0000   1.0000   1.0000   1.0000   1.0000   1.0000
     1.0000   1.0000   1.0000   1.0000   1.0000   1.0000   1.0000   1.0000
     1.0000   1.0000   1.0000   1.0000   1.0000   1.0000   1.0000   1.0000
     1.0000   1.0000   1.0000   1.0000   1.0000   1.0000   1.0000   1.0000
     1.0000   1.0000   1.0000   1.0000   1.0000   1.0000   1.0000   1.0000
     1.0000   1.0000   1.0000   1.0000   1.0000   1.0000

     highest occupied level (ev):    -2.0114

!    total energy              =    -512.12680086 Ry
     estimated scf accuracy    <          6.7E-09 Ry

     The total energy is the sum of the following terms:
     one-electron contribution =   -2094.66135845 Ry
     hartree contribution      =    1049.59432941 Ry
     xc contribution           =    -100.13000808 Ry
     ewald contribution        =     633.07023626 Ry

     total magnetization       =    -0.00    -0.00     6.02 Bohr mag/cell
     absolute magnetization    =     6.93 Bohr mag/cell

     convergence has been achieved in  22 iterations

     Writing output data file ./CrI3_kx4_e70.save/

     init_run     :     98.40s CPU     99.52s WALL (       1 calls)
     electrons    :   6309.39s CPU   6364.43s WALL (       1 calls)

     Called by init_run:
     wfcinit      :     96.50s CPU     97.41s WALL (       1 calls)
     wfcinit:atom :      0.10s CPU      0.19s WALL (       4 calls)
     wfcinit:wfcr :     95.68s CPU     96.31s WALL (       4 calls)
     potinit      :      0.96s CPU      1.08s WALL (       1 calls)
     hinit0       :      0.75s CPU      0.77s WALL (       1 calls)

     Called by electrons:
     c_bands      :   5907.11s CPU   5956.20s WALL (      22 calls)
     sum_band     :    380.46s CPU    386.09s WALL (      22 calls)
     v_of_rho     :      3.19s CPU      3.31s WALL (      23 calls)
     v_h          :      1.24s CPU      1.28s WALL (      23 calls)
     v_xc         :      1.95s CPU      2.03s WALL (      23 calls)
     mix_rho      :     17.36s CPU     17.58s WALL (      22 calls)

     Called by c_bands:
     init_us_2    :      7.98s CPU      8.20s WALL (     180 calls)
     cegterg      :   5845.09s CPU   5893.50s WALL (      88 calls)

     Called by sum_band:
     sum_band:wei :      0.00s CPU      0.00s WALL (      22 calls)
     sum_band:loo :    371.22s CPU    376.73s WALL (      22 calls)
     sum_band:buf :      2.62s CPU      2.66s WALL (      88 calls)
     sum_band:ini :      3.88s CPU      3.91s WALL (      88 calls)

     Called by *egterg:
     cdiaghg      :      3.58s CPU      3.61s WALL (     527 calls)
     cegterg:over :    763.54s CPU    770.17s WALL (     439 calls)
     cegterg:upda :    397.46s CPU    400.58s WALL (     439 calls)
     cegterg:last :    672.79s CPU    677.64s WALL (     211 calls)
     h_psi        :   3769.58s CPU   3800.15s WALL (     531 calls)
     g_psi        :      3.61s CPU      3.63s WALL (     439 calls)

     Called by h_psi:
     h_psi:calbec :   1113.11s CPU   1120.29s WALL (     531 calls)
     vloc_psi     :   1654.40s CPU   1671.56s WALL (     531 calls)
     add_vuspsi   :    994.12s CPU   1000.10s WALL (     531 calls)

     General routines
     calbec       :   1113.11s CPU   1120.28s WALL (     531 calls)
     fft          :      8.56s CPU      8.64s WALL (     201 calls)
     ffts         :      3.50s CPU      3.58s WALL (      88 calls)
     fftw         :   1624.13s CPU   1642.39s WALL (   83052 calls)

     Parallel routines
     fft_scatt_xy :    262.53s CPU    265.46s WALL (   83341 calls)
     fft_scatt_yz :    228.14s CPU    231.97s WALL (   83341 calls)

     PWSCF        :      1h46m CPU      1h47m WALL


   This run was terminated on:  10:56:53   2Dec2020            

=------------------------------------------------------------------------------=
   JOB DONE.
=------------------------------------------------------------------------------=
