
     Program PWSCF v.6.6 starts on  1Dec2020 at 22:45:49 

     This program is part of the open-source Quantum ESPRESSO suite
     for quantum simulation of materials; please cite
         "P. Giannozzi et al., J. Phys.:Condens. Matter 21 395502 (2009);
         "P. Giannozzi et al., J. Phys.:Condens. Matter 29 465901 (2017);
          URL http://www.quantum-espresso.org", 
     in publications or presentations arising from this work. More details at
     http://www.quantum-espresso.org/quote

     Parallel version (MPI), running on     3 processors

     MPI processes distributed on     1 nodes
     R & G space division:  proc/nbgrp/npool/nimage =       3
     Fft bands division:     nmany     =       1
     Waiting for input...
     Reading input from standard input

     Current dimensions of program PWSCF are:
     Max number of different atomic species (ntypx) = 10
     Max number of k-points (npk) =  40000
     Max angular momentum in pseudopotentials (lmaxx) =  3

     Subspace diagonalization in iterative solution of the eigenvalue problem:
     a serial algorithm will be used


     Parallelization info
     --------------------
     sticks:   dense  smooth     PW     G-vecs:    dense   smooth      PW
     Min        1288    1288    346               203820   203820   28318
     Max        1289    1289    347               203826   203826   28327
     Sum        3865    3865   1039               611469   611469   84969



     bravais-lattice index     =            4
     lattice parameter (alat)  =      12.6872  a.u.
     unit-cell volume          =    5575.9936 (a.u.)^3
     number of atoms/cell      =            8
     number of atomic types    =            2
     number of electrons       =        70.00
     number of Kohn-Sham states=           70
     kinetic-energy cutoff     =      87.0000  Ry
     charge density cutoff     =     348.0000  Ry
     convergence threshold     =      1.0E-08
     mixing beta               =       0.7000
     number of iterations used =            8  plain     mixing
     Exchange-correlation= PZ
                           (   1   1   0   0   0   0   0)
     Noncollinear calculation with spin-orbit


     celldm(1)=  12.687201  celldm(2)=   0.000000  celldm(3)=   3.152784
     celldm(4)=   0.000000  celldm(5)=   0.000000  celldm(6)=   0.000000

     crystal axes: (cart. coord. in units of alat)
               a(1) = (   1.000000   0.000000   0.000000 )  
               a(2) = (  -0.500000   0.866025   0.000000 )  
               a(3) = (   0.000000   0.000000   3.152784 )  

     reciprocal axes: (cart. coord. in units 2 pi/alat)
               b(1) = (  1.000000  0.577350 -0.000000 )  
               b(2) = (  0.000000  1.154701  0.000000 )  
               b(3) = (  0.000000 -0.000000  0.317180 )  


     PseudoPot. # 1 for Cr read from file:
     ../../psps/Cr.upf
     MD5 check sum: b32cdf955d2375499d0ea06d1493a96a
     Pseudo is Norm-conserving + core correction, Zval = 14.0
     Generated using ONCVPSP code by D. R. Hamann
     Using radial grid of 1600 points, 10 beta functions with: 
                l(1) =   0
                l(2) =   0
                l(3) =   1
                l(4) =   1
                l(5) =   1
                l(6) =   1
                l(7) =   2
                l(8) =   2
                l(9) =   2
               l(10) =   2

     PseudoPot. # 2 for I  read from file:
     ../../psps/I.upf
     MD5 check sum: d0d4d45a39a9ecd37d4d9deb6bd296a3
     Pseudo is Norm-conserving + core correction, Zval =  7.0
     Generated using ONCVPSP code by D. R. Hamann
     Using radial grid of 1196 points, 10 beta functions with: 
                l(1) =   0
                l(2) =   0
                l(3) =   1
                l(4) =   1
                l(5) =   1
                l(6) =   1
                l(7) =   2
                l(8) =   2
                l(9) =   2
               l(10) =   2

     atomic species   valence    mass     pseudopotential
        Cr            14.00    51.99000     Cr( 1.00)
        I              7.00   126.90000     I ( 1.00)

     12 Sym. Ops., with inversion, found


                                    s                        frac. trans.

      isym =  1     identity                                     

 Time Reversal            0
 cryst.   s( 1) = (     1          0          0      )
                  (     0          1          0      )
                  (     0          0          1      )

 cart.    s( 1) = (  1.0000000  0.0000000  0.0000000 )
                  (  0.0000000  1.0000000  0.0000000 )
                  (  0.0000000  0.0000000  1.0000000 )


      isym =  2     180 deg rotation - cart. axis [0,1,0]        

 Time Reversal            1
 cryst.   s( 2) = (    -1          0          0      )
                  (     1          1          0      )
                  (     0          0         -1      )

 cart.    s( 2) = ( -1.0000000  0.0000000  0.0000000 )
                  (  0.0000000  1.0000000  0.0000000 )
                  (  0.0000000  0.0000000 -1.0000000 )


      isym =  3     120 deg rotation - cryst. axis [0,0,1]       

 Time Reversal            0
 cryst.   s( 3) = (     0          1          0      )
                  (    -1         -1          0      )
                  (     0          0          1      )

 cart.    s( 3) = ( -0.5000000 -0.8660254  0.0000000 )
                  (  0.8660254 -0.5000000  0.0000000 )
                  (  0.0000000  0.0000000  1.0000000 )


      isym =  4     120 deg rotation - cryst. axis [0,0,-1]      

 Time Reversal            0
 cryst.   s( 4) = (    -1         -1          0      )
                  (     1          0          0      )
                  (     0          0          1      )

 cart.    s( 4) = ( -0.5000000  0.8660254  0.0000000 )
                  ( -0.8660254 -0.5000000  0.0000000 )
                  (  0.0000000  0.0000000  1.0000000 )


      isym =  5     180 deg rotation - cryst. axis [1,-1,0]      

 Time Reversal            1
 cryst.   s( 5) = (     0         -1          0      )
                  (    -1          0          0      )
                  (     0          0         -1      )

 cart.    s( 5) = (  0.5000000 -0.8660254  0.0000000 )
                  ( -0.8660254 -0.5000000  0.0000000 )
                  (  0.0000000  0.0000000 -1.0000000 )


      isym =  6     180 deg rotation - cryst. axis [2,1,0]       

 Time Reversal            1
 cryst.   s( 6) = (     1          1          0      )
                  (     0         -1          0      )
                  (     0          0         -1      )

 cart.    s( 6) = (  0.5000000  0.8660254  0.0000000 )
                  (  0.8660254 -0.5000000  0.0000000 )
                  (  0.0000000  0.0000000 -1.0000000 )


      isym =  7     inversion                                    

 Time Reversal            0
 cryst.   s( 7) = (    -1          0          0      )
                  (     0         -1          0      )
                  (     0          0         -1      )

 cart.    s( 7) = ( -1.0000000  0.0000000  0.0000000 )
                  (  0.0000000 -1.0000000  0.0000000 )
                  (  0.0000000  0.0000000 -1.0000000 )


      isym =  8     inv. 180 deg rotation - cart. axis [0,1,0]   

 Time Reversal            1
 cryst.   s( 8) = (     1          0          0      )
                  (    -1         -1          0      )
                  (     0          0          1      )

 cart.    s( 8) = (  1.0000000  0.0000000  0.0000000 )
                  (  0.0000000 -1.0000000  0.0000000 )
                  (  0.0000000  0.0000000  1.0000000 )


      isym =  9     inv. 120 deg rotation - cryst. axis [0,0,1]  

 Time Reversal            0
 cryst.   s( 9) = (     0         -1          0      )
                  (     1          1          0      )
                  (     0          0         -1      )

 cart.    s( 9) = (  0.5000000  0.8660254  0.0000000 )
                  ( -0.8660254  0.5000000  0.0000000 )
                  (  0.0000000  0.0000000 -1.0000000 )


      isym = 10     inv. 120 deg rotation - cryst. axis [0,0,-1] 

 Time Reversal            0
 cryst.   s(10) = (     1          1          0      )
                  (    -1          0          0      )
                  (     0          0         -1      )

 cart.    s(10) = (  0.5000000 -0.8660254  0.0000000 )
                  (  0.8660254  0.5000000  0.0000000 )
                  (  0.0000000  0.0000000 -1.0000000 )


      isym = 11     inv. 180 deg rotation - cryst. axis [1,-1,0] 

 Time Reversal            1
 cryst.   s(11) = (     0          1          0      )
                  (     1          0          0      )
                  (     0          0          1      )

 cart.    s(11) = ( -0.5000000  0.8660254  0.0000000 )
                  (  0.8660254  0.5000000  0.0000000 )
                  (  0.0000000  0.0000000  1.0000000 )


      isym = 12     inv. 180 deg rotation - cryst. axis [2,1,0]  

 Time Reversal            1
 cryst.   s(12) = (    -1         -1          0      )
                  (     0          1          0      )
                  (     0          0          1      )

 cart.    s(12) = ( -0.5000000 -0.8660254  0.0000000 )
                  ( -0.8660254  0.5000000  0.0000000 )
                  (  0.0000000  0.0000000  1.0000000 )


     the magnetic double point group is D_3d (-3m)  [S_6 (-3)   ]
     using the double point group S_6 (-3)   
     there are 12 classes and  6 irreducible representations
     the character table:

       E     -E    C3    -C3   C3^2  -C3^2  i    -i    S6^5  -S6^5 S6    -S6  
                                                                              
G_4+   1.00 -1.00  0.50 -0.50  0.50 -0.50  1.00 -1.00  0.50 -0.50  0.50 -0.50
G_5+   1.00 -1.00  0.50 -0.50  0.50 -0.50  1.00 -1.00  0.50 -0.50  0.50 -0.50
G_6+   1.00 -1.00 -1.00  1.00 -1.00  1.00  1.00 -1.00 -1.00  1.00 -1.00  1.00
G_4-   1.00 -1.00  0.50 -0.50  0.50 -0.50 -1.00  1.00 -0.50  0.50 -0.50  0.50
G_5-   1.00 -1.00  0.50 -0.50  0.50 -0.50 -1.00  1.00 -0.50  0.50 -0.50  0.50
G_6-   1.00 -1.00 -1.00  1.00 -1.00  1.00 -1.00  1.00  1.00 -1.00  1.00 -1.00

     imaginary part

       E     -E    C3    -C3   C3^2  -C3^2  i    -i    S6^5  -S6^5 S6    -S6  
                                                                              
G_4+   0.00  0.00  0.87 -0.87 -0.87  0.87  0.00  0.00  0.87 -0.87 -0.87  0.87
G_5+   0.00  0.00 -0.87  0.87  0.87 -0.87  0.00  0.00 -0.87  0.87  0.87 -0.87
G_6+   0.00  0.00  0.00  0.00  0.00  0.00  0.00  0.00  0.00  0.00  0.00  0.00
G_4-   0.00  0.00  0.87 -0.87 -0.87  0.87  0.00  0.00 -0.87  0.87  0.87 -0.87
G_5-   0.00  0.00 -0.87  0.87  0.87 -0.87  0.00  0.00  0.87 -0.87 -0.87  0.87
G_6-   0.00  0.00  0.00  0.00  0.00  0.00  0.00  0.00  0.00  0.00  0.00  0.00

     the symmetry operations in each class and the name of the first element:

     E             1
          identity                                               
     -E           -1
          identity E                                             
     C3            2
          120 deg rotation - cryst. axis [0,0,1]                 
     -C3          -2
          120 deg rotation - cryst. axis [0,0,1] E               
     C3^2          3
          120 deg rotation - cryst. axis [0,0,-1]                
     -C3^2        -3
          120 deg rotation - cryst. axis [0,0,-1] E              
      i            4
          inversion                                              
     -i           -4
          inversion E                                            
     S6^5          5
          inv. 120 deg rotation - cryst. axis [0,0,1]            
     -S6^5        -5
          inv. 120 deg rotation - cryst. axis [0,0,1] E          
     S6            6
          inv. 120 deg rotation - cryst. axis [0,0,-1]           
     -S6          -6
          inv. 120 deg rotation - cryst. axis [0,0,-1] E         

   Cartesian axes

     site n.     atom                  positions (alat units)
         1           Cr  tau(   1) = (   0.5000000   0.2886751   0.0000000  )
         2           Cr  tau(   2) = (  -0.0000000   0.5773503   0.0000000  )
         3           I   tau(   3) = (   0.3254097   0.5636261  -0.2277343  )
         4           I   tau(   4) = (  -0.1745903   0.3023993  -0.2277343  )
         5           I   tau(   5) = (   0.3491807   0.0000000  -0.2277343  )
         6           I   tau(   6) = (   0.1745903   0.3023993   0.2277343  )
         7           I   tau(   7) = (   0.6508193   0.0000000   0.2277343  )
         8           I   tau(   8) = (  -0.3254097   0.5636261   0.2277343  )

   Crystallographic axes

     site n.     atom                  positions (cryst. coord.)
         1           Cr  tau(   1) = (  0.6666667  0.3333333  0.0000000  )
         2           Cr  tau(   2) = (  0.3333333  0.6666667  0.0000000  )
         3           I   tau(   3) = (  0.6508193  0.6508193 -0.0722328  )
         4           I   tau(   4) = (  0.0000000  0.3491807 -0.0722328  )
         5           I   tau(   5) = (  0.3491807  0.0000000 -0.0722328  )
         6           I   tau(   6) = (  0.3491807  0.3491807  0.0722328  )
         7           I   tau(   7) = (  0.6508193  0.0000000  0.0722328  )
         8           I   tau(   8) = (  0.0000000  0.6508193  0.0722328  )

     number of k points=     7
                       cart. coord. in units 2pi/alat
        k(    1) = (   0.0000000   0.0000000   0.0000000), wk =   0.0277778
        k(    2) = (   0.0000000   0.1924501   0.0000000), wk =   0.1666667
        k(    3) = (   0.0000000   0.3849002   0.0000000), wk =   0.1666667
        k(    4) = (   0.0000000  -0.5773503   0.0000000), wk =   0.0833333
        k(    5) = (   0.1666667   0.2886751   0.0000000), wk =   0.1666667
        k(    6) = (   0.1666667   0.4811252   0.0000000), wk =   0.3333333
        k(    7) = (   0.3333333   0.5773503   0.0000000), wk =   0.0555556

                       cryst. coord.
        k(    1) = (   0.0000000   0.0000000   0.0000000), wk =   0.0277778
        k(    2) = (   0.0000000   0.1666667   0.0000000), wk =   0.1666667
        k(    3) = (   0.0000000   0.3333333   0.0000000), wk =   0.1666667
        k(    4) = (   0.0000000  -0.5000000   0.0000000), wk =   0.0833333
        k(    5) = (   0.1666667   0.1666667   0.0000000), wk =   0.1666667
        k(    6) = (   0.1666667   0.3333333   0.0000000), wk =   0.3333333
        k(    7) = (   0.3333333   0.3333333   0.0000000), wk =   0.0555556

     Dense  grid:   611469 G-vectors     FFT dimensions: (  75,  75, 240)

     Dynamical RAM for                 wfc:      54.41 MB

     Dynamical RAM for     wfc (w. buffer):     435.28 MB

     Dynamical RAM for           str. fact:       6.22 MB

     Dynamical RAM for           local pot:       0.00 MB

     Dynamical RAM for          nlocal pot:     105.71 MB

     Dynamical RAM for                qrad:       7.84 MB

     Dynamical RAM for          rho,v,vnew:      78.52 MB

     Dynamical RAM for               rhoin:      26.17 MB

     Dynamical RAM for            rho*nmix:     199.04 MB

     Dynamical RAM for           G-vectors:      13.22 MB

     Dynamical RAM for          h,s,v(r/c):       0.90 MB

     Dynamical RAM for          <psi|beta>:       0.58 MB

     Dynamical RAM for                 psi:     108.82 MB

     Dynamical RAM for                hpsi:     108.82 MB

     Dynamical RAM for      wfcinit/wfcrot:     102.78 MB

     Estimated static dynamical RAM per process >     908.80 MB

     Estimated max dynamical RAM per process >       1.10 GB

     Estimated total dynamical RAM >       3.30 GB
     Generating pointlists ...
     new r_m :   0.1639 (alat units)  2.0799 (a.u.) for type    1
     new r_m :   0.1639 (alat units)  2.0799 (a.u.) for type    2

     Initial potential from superposition of free atoms

     starting charge   69.99738, renormalised to   70.00000

     negative rho (up, down):  6.185E-06 2.481E-01

 ==============================================================================
     atom number    1 relative position :    0.5000   0.2887   0.0000
     charge :    12.667530
     magnetization :          0.000000    0.000000   12.304655
     magnetization/charge:    0.000000    0.000000    0.971354
     polar coord.: r, theta, phi [deg] :    12.304655    0.000000  360.000000

 ==============================================================================

 ==============================================================================
     atom number    2 relative position :   -0.0000   0.5774   0.0000
     charge :    12.667530
     magnetization :          0.000000    0.000000   12.304655
     magnetization/charge:    0.000000    0.000000    0.971354
     polar coord.: r, theta, phi [deg] :    12.304655    0.000000  360.000000

 ==============================================================================

 ==============================================================================
     atom number    3 relative position :    0.3254   0.5636  -0.2277
     charge :     3.938449
     magnetization :          0.000000    0.000000    0.084784
     magnetization/charge:    0.000000    0.000000    0.021527
     polar coord.: r, theta, phi [deg] :     0.084784    0.000000  360.000000

 ==============================================================================

 ==============================================================================
     atom number    4 relative position :   -0.1746   0.3024  -0.2277
     charge :     3.938449
     magnetization :          0.000000    0.000000    0.084784
     magnetization/charge:    0.000000    0.000000    0.021527
     polar coord.: r, theta, phi [deg] :     0.084784    0.000000  360.000000

 ==============================================================================

 ==============================================================================
     atom number    5 relative position :    0.3492   0.0000  -0.2277
     charge :     3.938449
     magnetization :          0.000000    0.000000    0.084784
     magnetization/charge:    0.000000    0.000000    0.021527
     polar coord.: r, theta, phi [deg] :     0.084784    0.000000  360.000000

 ==============================================================================

 ==============================================================================
     atom number    6 relative position :    0.1746   0.3024   0.2277
     charge :     3.938449
     magnetization :          0.000000    0.000000    0.084784
     magnetization/charge:    0.000000    0.000000    0.021527
     polar coord.: r, theta, phi [deg] :     0.084784    0.000000  360.000000

 ==============================================================================

 ==============================================================================
     atom number    7 relative position :    0.6508   0.0000   0.2277
     charge :     3.938449
     magnetization :          0.000000    0.000000    0.084784
     magnetization/charge:    0.000000    0.000000    0.021527
     polar coord.: r, theta, phi [deg] :     0.084784    0.000000  360.000000

 ==============================================================================

 ==============================================================================
     atom number    8 relative position :   -0.3254   0.5636   0.2277
     charge :     3.938449
     magnetization :          0.000000    0.000000    0.084784
     magnetization/charge:    0.000000    0.000000    0.021527
     polar coord.: r, theta, phi [deg] :     0.084784    0.000000  360.000000

 ==============================================================================
     Starting wfcs are   88 randomized atomic wfcs

     total cpu time spent up to now is      117.4 secs

     Self-consistent Calculation

     iteration #  1     ecut=    87.00 Ry     beta= 0.70
     Davidson diagonalization with overlap
     ethr =  1.00E-02,  avg # of iterations =  2.0

     total cpu time spent up to now is      411.7 secs

     total energy              =    -511.32570728 Ry
     estimated scf accuracy    <       4.78396703 Ry

     total magnetization       =    -0.00     0.00     6.15 Bohr mag/cell
     absolute magnetization    =    10.41 Bohr mag/cell

     iteration #  2     ecut=    87.00 Ry     beta= 0.70
     Davidson diagonalization with overlap
     ethr =  6.83E-03,  avg # of iterations =  2.0

     total cpu time spent up to now is      689.2 secs

     total energy              =    -511.58794120 Ry
     estimated scf accuracy    <       0.98857913 Ry

     total magnetization       =     0.00     0.00     6.18 Bohr mag/cell
     absolute magnetization    =    10.61 Bohr mag/cell

     iteration #  3     ecut=    87.00 Ry     beta= 0.70
     Davidson diagonalization with overlap
     ethr =  1.41E-03,  avg # of iterations =  6.4

     total cpu time spent up to now is     1098.6 secs

     total energy              =    -511.51195416 Ry
     estimated scf accuracy    <       3.62123122 Ry

     total magnetization       =     0.00    -0.00     6.00 Bohr mag/cell
     absolute magnetization    =     6.77 Bohr mag/cell

     iteration #  4     ecut=    87.00 Ry     beta= 0.70
     Davidson diagonalization with overlap
     ethr =  1.41E-03,  avg # of iterations =  8.3

     total cpu time spent up to now is     1519.7 secs

     total energy              =    -512.11577178 Ry
     estimated scf accuracy    <       0.08374779 Ry

     total magnetization       =     0.00    -0.00     6.06 Bohr mag/cell
     absolute magnetization    =     8.18 Bohr mag/cell

     iteration #  5     ecut=    87.00 Ry     beta= 0.70
     Davidson diagonalization with overlap
     ethr =  1.20E-04,  avg # of iterations =  6.6

     total cpu time spent up to now is     1908.3 secs

     total energy              =    -512.14093508 Ry
     estimated scf accuracy    <       0.09080824 Ry

     total magnetization       =     0.00     0.00     6.06 Bohr mag/cell
     absolute magnetization    =     7.68 Bohr mag/cell

     iteration #  6     ecut=    87.00 Ry     beta= 0.70
     Davidson diagonalization with overlap
     ethr =  1.20E-04,  avg # of iterations =  2.6

     negative rho (up, down):  5.770E-06 1.628E-02

     total cpu time spent up to now is     2155.1 secs

     total energy              =    -512.12720679 Ry
     estimated scf accuracy    <       0.03898400 Ry

     total magnetization       =     0.00     0.00     6.05 Bohr mag/cell
     absolute magnetization    =     7.50 Bohr mag/cell

     iteration #  7     ecut=    87.00 Ry     beta= 0.70
     Davidson diagonalization with overlap
     ethr =  5.57E-05,  avg # of iterations =  7.6

     negative rho (up, down):  0.000E+00 7.615E-02

     total cpu time spent up to now is     2566.3 secs

     total energy              =    -512.14341997 Ry
     estimated scf accuracy    <       0.06384640 Ry

     total magnetization       =     0.00     0.00     6.02 Bohr mag/cell
     absolute magnetization    =     6.87 Bohr mag/cell

     iteration #  8     ecut=    87.00 Ry     beta= 0.70
     Davidson diagonalization with overlap
     ethr =  5.57E-05,  avg # of iterations =  2.3

     negative rho (up, down):  7.357E-06 6.769E-03

     total cpu time spent up to now is     2826.3 secs

     total energy              =    -512.14011434 Ry
     estimated scf accuracy    <       0.01922885 Ry

     total magnetization       =     0.00     0.00     6.02 Bohr mag/cell
     absolute magnetization    =     6.94 Bohr mag/cell

     iteration #  9     ecut=    87.00 Ry     beta= 0.70
     Davidson diagonalization with overlap
     ethr =  2.75E-05,  avg # of iterations =  6.4

     negative rho (up, down):  3.887E-06 6.135E-03

     total cpu time spent up to now is     3240.1 secs

     total energy              =    -512.14855538 Ry
     estimated scf accuracy    <       0.01062108 Ry

     total magnetization       =    -0.00     0.00     6.02 Bohr mag/cell
     absolute magnetization    =     7.00 Bohr mag/cell

     iteration # 10     ecut=    87.00 Ry     beta= 0.70
     Davidson diagonalization with overlap
     ethr =  1.52E-05,  avg # of iterations =  1.0

     negative rho (up, down):  2.612E-07 3.492E-03

     total cpu time spent up to now is     3464.5 secs

     total energy              =    -512.14700579 Ry
     estimated scf accuracy    <       0.00784580 Ry

     total magnetization       =     0.00     0.00     6.02 Bohr mag/cell
     absolute magnetization    =     7.00 Bohr mag/cell

     iteration # 11     ecut=    87.00 Ry     beta= 0.70
     Davidson diagonalization with overlap
     ethr =  1.12E-05,  avg # of iterations =  3.1

     negative rho (up, down):  2.878E-07 3.447E-03

     total cpu time spent up to now is     3727.6 secs

     total energy              =    -512.14742369 Ry
     estimated scf accuracy    <       0.00141299 Ry

     total magnetization       =    -0.00     0.00     6.02 Bohr mag/cell
     absolute magnetization    =     6.96 Bohr mag/cell

     iteration # 12     ecut=    87.00 Ry     beta= 0.70
     Davidson diagonalization with overlap
     ethr =  2.02E-06,  avg # of iterations =  5.6

     negative rho (up, down):  2.842E-07 3.394E-03

     total cpu time spent up to now is     4023.6 secs

     total energy              =    -512.14767282 Ry
     estimated scf accuracy    <       0.00004734 Ry

     total magnetization       =    -0.00     0.00     6.02 Bohr mag/cell
     absolute magnetization    =     6.94 Bohr mag/cell

     iteration # 13     ecut=    87.00 Ry     beta= 0.70
     Davidson diagonalization with overlap
     ethr =  6.76E-08,  avg # of iterations = 11.6

     negative rho (up, down):  4.022E-07 3.650E-03

     total cpu time spent up to now is     4530.6 secs

     total energy              =    -512.14771661 Ry
     estimated scf accuracy    <       0.00004724 Ry

     total magnetization       =    -0.00     0.00     6.02 Bohr mag/cell
     absolute magnetization    =     6.93 Bohr mag/cell

     iteration # 14     ecut=    87.00 Ry     beta= 0.70
     Davidson diagonalization with overlap
     ethr =  6.75E-08,  avg # of iterations =  6.9

     negative rho (up, down):  1.011E-07 2.650E-03

     total cpu time spent up to now is     4964.2 secs

     total energy              =    -512.14777398 Ry
     estimated scf accuracy    <       0.00014512 Ry

     total magnetization       =    -0.00     0.00     6.02 Bohr mag/cell
     absolute magnetization    =     6.93 Bohr mag/cell

     iteration # 15     ecut=    87.00 Ry     beta= 0.70
     Davidson diagonalization with overlap
     ethr =  6.75E-08,  avg # of iterations =  4.1

     negative rho (up, down):  1.057E-10 2.533E-03

     total cpu time spent up to now is     5235.9 secs

     total energy              =    -512.14781840 Ry
     estimated scf accuracy    <       0.00025998 Ry

     total magnetization       =    -0.00     0.00     6.02 Bohr mag/cell
     absolute magnetization    =     6.92 Bohr mag/cell

     iteration # 16     ecut=    87.00 Ry     beta= 0.70
     Davidson diagonalization with overlap
     ethr =  6.75E-08,  avg # of iterations =  6.1

     negative rho (up, down):  0.000E+00 2.324E-03

     total cpu time spent up to now is     5622.3 secs

     total energy              =    -512.14788882 Ry
     estimated scf accuracy    <       0.00070463 Ry

     total magnetization       =    -0.00    -0.00     6.02 Bohr mag/cell
     absolute magnetization    =     6.92 Bohr mag/cell

     iteration # 17     ecut=    87.00 Ry     beta= 0.70
     Davidson diagonalization with overlap
     ethr =  6.75E-08,  avg # of iterations =  5.4

     negative rho (up, down):  0.000E+00 2.400E-03

     total cpu time spent up to now is     5985.6 secs

     total energy              =    -512.14787013 Ry
     estimated scf accuracy    <       0.00123643 Ry

     total magnetization       =     0.00    -0.00     6.02 Bohr mag/cell
     absolute magnetization    =     6.92 Bohr mag/cell

     iteration # 18     ecut=    87.00 Ry     beta= 0.70
     Davidson diagonalization with overlap
     ethr =  6.75E-08,  avg # of iterations =  1.1

     negative rho (up, down):  0.000E+00 2.311E-03

     total cpu time spent up to now is     6211.4 secs

     total energy              =    -512.14781705 Ry
     estimated scf accuracy    <       0.00114290 Ry

     total magnetization       =     0.00    -0.00     6.02 Bohr mag/cell
     absolute magnetization    =     6.92 Bohr mag/cell

     iteration # 19     ecut=    87.00 Ry     beta= 0.70
     Davidson diagonalization with overlap
     ethr =  6.75E-08,  avg # of iterations =  3.1

     negative rho (up, down):  0.000E+00 2.530E-03

     total cpu time spent up to now is     6481.1 secs

     total energy              =    -512.14773457 Ry
     estimated scf accuracy    <       0.00085946 Ry

     total magnetization       =    -0.00    -0.00     6.02 Bohr mag/cell
     absolute magnetization    =     6.92 Bohr mag/cell

     iteration # 20     ecut=    87.00 Ry     beta= 0.70
     Davidson diagonalization with overlap
     ethr =  6.75E-08,  avg # of iterations =  7.1

     negative rho (up, down):  0.000E+00 2.553E-03

     total cpu time spent up to now is     6876.4 secs

     total energy              =    -512.14770470 Ry
     estimated scf accuracy    <       0.00028511 Ry

     total magnetization       =     0.00     0.00     6.02 Bohr mag/cell
     absolute magnetization    =     6.93 Bohr mag/cell

     iteration # 21     ecut=    87.00 Ry     beta= 0.70
     Davidson diagonalization with overlap
     ethr =  6.75E-08,  avg # of iterations =  7.1

     negative rho (up, down):  0.000E+00 2.637E-03

     total cpu time spent up to now is     7322.1 secs

     total energy              =    -512.14773625 Ry
     estimated scf accuracy    <       0.00000368 Ry

     total magnetization       =    -0.00    -0.00     6.02 Bohr mag/cell
     absolute magnetization    =     6.93 Bohr mag/cell

     iteration # 22     ecut=    87.00 Ry     beta= 0.70
     Davidson diagonalization with overlap
     ethr =  5.26E-09,  avg # of iterations =  9.4

     negative rho (up, down):  0.000E+00 2.597E-03

     total cpu time spent up to now is     7885.4 secs

     total energy              =    -512.14774315 Ry
     estimated scf accuracy    <       0.00002416 Ry

     total magnetization       =     0.00     0.00     6.02 Bohr mag/cell
     absolute magnetization    =     6.93 Bohr mag/cell

     iteration # 23     ecut=    87.00 Ry     beta= 0.70
     Davidson diagonalization with overlap
     ethr =  5.26E-09,  avg # of iterations =  1.1

     negative rho (up, down):  0.000E+00 2.557E-03

     total cpu time spent up to now is     8111.0 secs

     total energy              =    -512.14774174 Ry
     estimated scf accuracy    <       0.00002252 Ry

     total magnetization       =     0.00    -0.00     6.02 Bohr mag/cell
     absolute magnetization    =     6.93 Bohr mag/cell

     iteration # 24     ecut=    87.00 Ry     beta= 0.70
     Davidson diagonalization with overlap
     ethr =  5.26E-09,  avg # of iterations =  2.0

     negative rho (up, down):  0.000E+00 2.713E-03

     total cpu time spent up to now is     8354.1 secs

     total energy              =    -512.14774007 Ry
     estimated scf accuracy    <       0.00001567 Ry

     total magnetization       =     0.00    -0.00     6.02 Bohr mag/cell
     absolute magnetization    =     6.93 Bohr mag/cell

     iteration # 25     ecut=    87.00 Ry     beta= 0.70
     Davidson diagonalization with overlap
     ethr =  5.26E-09,  avg # of iterations =  4.7

     negative rho (up, down):  0.000E+00 2.757E-03

     total cpu time spent up to now is     8639.2 secs

     total energy              =    -512.14774018 Ry
     estimated scf accuracy    <       0.00000572 Ry

     total magnetization       =    -0.00    -0.00     6.02 Bohr mag/cell
     absolute magnetization    =     6.93 Bohr mag/cell

     iteration # 26     ecut=    87.00 Ry     beta= 0.70
     Davidson diagonalization with overlap
     ethr =  5.26E-09,  avg # of iterations =  2.0

     negative rho (up, down):  0.000E+00 2.686E-03

     total cpu time spent up to now is     8879.9 secs

     total energy              =    -512.14773838 Ry
     estimated scf accuracy    <       0.00000371 Ry

     total magnetization       =     0.00     0.00     6.02 Bohr mag/cell
     absolute magnetization    =     6.93 Bohr mag/cell

     iteration # 27     ecut=    87.00 Ry     beta= 0.70
     Davidson diagonalization with overlap
     ethr =  5.26E-09,  avg # of iterations =  7.1

     negative rho (up, down):  0.000E+00 2.717E-03

     total cpu time spent up to now is     9353.6 secs

     total energy              =    -512.14774028 Ry
     estimated scf accuracy    <       0.00001013 Ry

     total magnetization       =     0.00     0.00     6.02 Bohr mag/cell
     absolute magnetization    =     6.92 Bohr mag/cell

     iteration # 28     ecut=    87.00 Ry     beta= 0.70
     Davidson diagonalization with overlap
     ethr =  5.26E-09,  avg # of iterations =  2.6

     negative rho (up, down):  0.000E+00 2.699E-03

     total cpu time spent up to now is     9618.1 secs

     total energy              =    -512.14774045 Ry
     estimated scf accuracy    <       0.00000423 Ry

     total magnetization       =    -0.00     0.00     6.02 Bohr mag/cell
     absolute magnetization    =     6.92 Bohr mag/cell

     iteration # 29     ecut=    87.00 Ry     beta= 0.70
     Davidson diagonalization with overlap
     ethr =  5.26E-09,  avg # of iterations =  1.0

     negative rho (up, down):  0.000E+00 2.695E-03

     total cpu time spent up to now is     9841.5 secs

     total energy              =    -512.14773960 Ry
     estimated scf accuracy    <       0.00000356 Ry

     total magnetization       =    -0.00     0.00     6.02 Bohr mag/cell
     absolute magnetization    =     6.92 Bohr mag/cell

     iteration # 30     ecut=    87.00 Ry     beta= 0.70
     Davidson diagonalization with overlap
     ethr =  5.09E-09,  avg # of iterations =  5.7

     negative rho (up, down):  0.000E+00 2.721E-03

     total cpu time spent up to now is    10162.5 secs

     total energy              =    -512.14774040 Ry
     estimated scf accuracy    <       0.00000030 Ry

     total magnetization       =    -0.00    -0.00     6.02 Bohr mag/cell
     absolute magnetization    =     6.93 Bohr mag/cell

     iteration # 31     ecut=    87.00 Ry     beta= 0.70
     Davidson diagonalization with overlap
     ethr =  4.34E-10,  avg # of iterations =  6.6

     negative rho (up, down):  0.000E+00 2.704E-03

     total cpu time spent up to now is    10481.5 secs

     total energy              =    -512.14774033 Ry
     estimated scf accuracy    <       0.00000066 Ry

     total magnetization       =     0.00     0.00     6.02 Bohr mag/cell
     absolute magnetization    =     6.92 Bohr mag/cell

     iteration # 32     ecut=    87.00 Ry     beta= 0.70
     Davidson diagonalization with overlap
     ethr =  4.34E-10,  avg # of iterations =  3.1

     negative rho (up, down):  0.000E+00 2.695E-03

     total cpu time spent up to now is    10769.7 secs

     total energy              =    -512.14774038 Ry
     estimated scf accuracy    <       0.00000011 Ry

     total magnetization       =    -0.00    -0.00     6.02 Bohr mag/cell
     absolute magnetization    =     6.92 Bohr mag/cell

     iteration # 33     ecut=    87.00 Ry     beta= 0.70
     Davidson diagonalization with overlap
     ethr =  1.63E-10,  avg # of iterations =  1.1

     negative rho (up, down):  0.000E+00 2.677E-03

     total cpu time spent up to now is    10995.3 secs

     total energy              =    -512.14774036 Ry
     estimated scf accuracy    <       0.00000011 Ry

     total magnetization       =    -0.00     0.00     6.02 Bohr mag/cell
     absolute magnetization    =     6.92 Bohr mag/cell

     iteration # 34     ecut=    87.00 Ry     beta= 0.70
     Davidson diagonalization with overlap
     ethr =  1.55E-10,  avg # of iterations =  5.9

     negative rho (up, down):  0.000E+00 2.686E-03

     total cpu time spent up to now is    11359.9 secs

     total energy              =    -512.14774039 Ry
     estimated scf accuracy    <       0.00000002 Ry

     total magnetization       =     0.00    -0.00     6.02 Bohr mag/cell
     absolute magnetization    =     6.92 Bohr mag/cell

     iteration # 35     ecut=    87.00 Ry     beta= 0.70
     Davidson diagonalization with overlap
     ethr =  2.26E-11,  avg # of iterations =  5.0

     negative rho (up, down):  0.000E+00 2.686E-03

     total cpu time spent up to now is    11621.7 secs

     total energy              =    -512.14774039 Ry
     estimated scf accuracy    <       0.00000002 Ry

     total magnetization       =    -0.00     0.00     6.02 Bohr mag/cell
     absolute magnetization    =     6.92 Bohr mag/cell

     iteration # 36     ecut=    87.00 Ry     beta= 0.70
     Davidson diagonalization with overlap
     ethr =  2.21E-11,  avg # of iterations =  1.0

     negative rho (up, down):  0.000E+00 2.695E-03

     total cpu time spent up to now is    11845.1 secs

     total energy              =    -512.14774039 Ry
     estimated scf accuracy    <       0.00000002 Ry

     total magnetization       =     0.00    -0.00     6.02 Bohr mag/cell
     absolute magnetization    =     6.92 Bohr mag/cell

     iteration # 37     ecut=    87.00 Ry     beta= 0.70
     Davidson diagonalization with overlap
     ethr =  2.21E-11,  avg # of iterations =  1.1

     negative rho (up, down):  0.000E+00 2.695E-03

     total cpu time spent up to now is    12071.5 secs

     total energy              =    -512.14774039 Ry
     estimated scf accuracy    <       0.00000001 Ry

     total magnetization       =     0.00    -0.00     6.02 Bohr mag/cell
     absolute magnetization    =     6.92 Bohr mag/cell

     iteration # 38     ecut=    87.00 Ry     beta= 0.70
     Davidson diagonalization with overlap
     ethr =  1.60E-11,  avg # of iterations =  4.0

     negative rho (up, down):  0.000E+00 2.695E-03

 ==============================================================================
     atom number    1 relative position :    0.5000   0.2887   0.0000
     charge :    12.419599
     magnetization :         -0.000000   -0.000000    2.847183
     magnetization/charge:   -0.000000   -0.000000    0.229249
     polar coord.: r, theta, phi [deg] :     2.847183    0.000000  360.000000

 ==============================================================================

 ==============================================================================
     atom number    2 relative position :   -0.0000   0.5774   0.0000
     charge :    12.419599
     magnetization :         -0.000000   -0.000000    2.847183
     magnetization/charge:   -0.000000   -0.000000    0.229249
     polar coord.: r, theta, phi [deg] :     2.847183    0.000000  360.000000

 ==============================================================================

 ==============================================================================
     atom number    3 relative position :    0.3254   0.5636  -0.2277
     charge :     3.962446
     magnetization :          0.000452    0.000783   -0.034921
     magnetization/charge:    0.000114    0.000197   -0.008813
     polar coord.: r, theta, phi [deg] :     0.034933  178.517797   60.000000

 ==============================================================================

 ==============================================================================
     atom number    4 relative position :   -0.1746   0.3024  -0.2277
     charge :     3.962446
     magnetization :          0.000452   -0.000783   -0.034921
     magnetization/charge:    0.000114   -0.000197   -0.008813
     polar coord.: r, theta, phi [deg] :     0.034933  178.517797  -60.000000

 ==============================================================================

 ==============================================================================
     atom number    5 relative position :    0.3492   0.0000  -0.2277
     charge :     3.962446
     magnetization :         -0.000904   -0.000000   -0.034921
     magnetization/charge:   -0.000228   -0.000000   -0.008813
     polar coord.: r, theta, phi [deg] :     0.034933  178.517797 -180.000000

 ==============================================================================

 ==============================================================================
     atom number    6 relative position :    0.1746   0.3024   0.2277
     charge :     3.962446
     magnetization :          0.000452    0.000783   -0.034921
     magnetization/charge:    0.000114    0.000197   -0.008813
     polar coord.: r, theta, phi [deg] :     0.034933  178.517797   60.000000

 ==============================================================================

 ==============================================================================
     atom number    7 relative position :    0.6508   0.0000   0.2277
     charge :     3.962446
     magnetization :         -0.000904    0.000000   -0.034921
     magnetization/charge:   -0.000228    0.000000   -0.008813
     polar coord.: r, theta, phi [deg] :     0.034933  178.517797  180.000000

 ==============================================================================

 ==============================================================================
     atom number    8 relative position :   -0.3254   0.5636   0.2277
     charge :     3.962446
     magnetization :          0.000452   -0.000783   -0.034921
     magnetization/charge:    0.000114   -0.000197   -0.008813
     polar coord.: r, theta, phi [deg] :     0.034933  178.517797  -60.000000

 ==============================================================================

     total cpu time spent up to now is    12342.9 secs

     End of self-consistent calculation

          k = 0.0000 0.0000 0.0000 ( 76361 PWs)   bands (ev):

   -74.0959 -74.0955 -71.2365 -71.2360 -46.2585 -46.2547 -45.9419 -45.9406
   -45.4966 -45.4922 -43.2319 -43.2270 -42.9441 -42.9423 -42.6354 -42.6298
   -15.6327 -15.5941 -14.7627 -14.7618 -14.4020 -14.3994 -14.3974 -14.3946
   -14.3060 -14.3051 -14.3018 -14.3007  -7.2403  -6.9868  -6.7440  -6.5354
    -6.4073  -6.3959  -6.2509  -6.1893  -6.1093  -6.0563  -5.9327  -5.7132
    -5.6482  -5.6390  -5.2557  -5.2232  -5.1070  -4.9835  -4.8426  -4.7181
    -4.6261  -4.5903  -4.5041  -4.2803  -4.2471  -4.1025  -3.9004  -3.8588
    -3.5631  -3.4983  -3.2746  -3.2321  -3.0271  -2.8775  -2.8754  -2.8582
    -2.7991  -2.7980  -2.6576  -2.4672  -2.0826  -2.0118

     occupation numbers 
     1.0000   1.0000   1.0000   1.0000   1.0000   1.0000   1.0000   1.0000
     1.0000   1.0000   1.0000   1.0000   1.0000   1.0000   1.0000   1.0000
     1.0000   1.0000   1.0000   1.0000   1.0000   1.0000   1.0000   1.0000
     1.0000   1.0000   1.0000   1.0000   1.0000   1.0000   1.0000   1.0000
     1.0000   1.0000   1.0000   1.0000   1.0000   1.0000   1.0000   1.0000
     1.0000   1.0000   1.0000   1.0000   1.0000   1.0000   1.0000   1.0000
     1.0000   1.0000   1.0000   1.0000   1.0000   1.0000   1.0000   1.0000
     1.0000   1.0000   1.0000   1.0000   1.0000   1.0000   1.0000   1.0000
     1.0000   1.0000   1.0000   1.0000   1.0000   1.0000

          k = 0.0000 0.1925 0.0000 ( 76395 PWs)   bands (ev):

   -74.0958 -74.0955 -71.2364 -71.2360 -46.2583 -46.2549 -45.9418 -45.9407
   -45.4963 -45.4924 -43.2317 -43.2273 -42.9440 -42.9424 -42.6351 -42.6301
   -15.5654 -15.5280 -14.7242 -14.7236 -14.4985 -14.4911 -14.4394 -14.4353
   -14.3140 -14.3101 -14.3087 -14.3057  -7.2376  -6.9983  -6.7328  -6.5255
    -6.4086  -6.3533  -6.2570  -6.2221  -6.1979  -6.1113  -5.7865  -5.7134
    -5.4829  -5.3573  -5.2142  -5.1445  -5.0105  -4.8374  -4.7537  -4.7277
    -4.5914  -4.5559  -4.5082  -4.2777  -4.1667  -4.0897  -3.9493  -3.8933
    -3.6853  -3.5210  -3.3628  -3.2332  -3.1611  -3.0291  -2.9514  -2.8997
    -2.8169  -2.7601  -2.6980  -2.4568  -2.4041  -2.1344

     occupation numbers 
     1.0000   1.0000   1.0000   1.0000   1.0000   1.0000   1.0000   1.0000
     1.0000   1.0000   1.0000   1.0000   1.0000   1.0000   1.0000   1.0000
     1.0000   1.0000   1.0000   1.0000   1.0000   1.0000   1.0000   1.0000
     1.0000   1.0000   1.0000   1.0000   1.0000   1.0000   1.0000   1.0000
     1.0000   1.0000   1.0000   1.0000   1.0000   1.0000   1.0000   1.0000
     1.0000   1.0000   1.0000   1.0000   1.0000   1.0000   1.0000   1.0000
     1.0000   1.0000   1.0000   1.0000   1.0000   1.0000   1.0000   1.0000
     1.0000   1.0000   1.0000   1.0000   1.0000   1.0000   1.0000   1.0000
     1.0000   1.0000   1.0000   1.0000   1.0000   1.0000

          k = 0.0000 0.3849 0.0000 ( 76408 PWs)   bands (ev):

   -74.0958 -74.0956 -71.2364 -71.2361 -46.2577 -46.2555 -45.9416 -45.9409
   -45.4956 -45.4931 -43.2309 -43.2280 -42.9437 -42.9427 -42.6342 -42.6310
   -15.3799 -15.3459 -14.7339 -14.7197 -14.6216 -14.6215 -14.4975 -14.4941
   -14.3647 -14.3610 -14.3418 -14.3351  -7.2390  -7.0165  -6.6395  -6.4423
    -6.4012  -6.3496  -6.2689  -6.1684  -6.1068  -5.9985  -5.5773  -5.5433
    -5.4026  -5.2328  -5.1931  -5.1179  -4.9440  -4.7354  -4.7184  -4.5835
    -4.5290  -4.4648  -4.4459  -4.2690  -4.1828  -4.0271  -4.0141  -3.8686
    -3.7687  -3.7085  -3.5644  -3.3682  -3.2096  -3.1608  -3.1178  -2.9377
    -2.7977  -2.7514  -2.7133  -2.6407  -2.5099  -2.2389

     occupation numbers 
     1.0000   1.0000   1.0000   1.0000   1.0000   1.0000   1.0000   1.0000
     1.0000   1.0000   1.0000   1.0000   1.0000   1.0000   1.0000   1.0000
     1.0000   1.0000   1.0000   1.0000   1.0000   1.0000   1.0000   1.0000
     1.0000   1.0000   1.0000   1.0000   1.0000   1.0000   1.0000   1.0000
     1.0000   1.0000   1.0000   1.0000   1.0000   1.0000   1.0000   1.0000
     1.0000   1.0000   1.0000   1.0000   1.0000   1.0000   1.0000   1.0000
     1.0000   1.0000   1.0000   1.0000   1.0000   1.0000   1.0000   1.0000
     1.0000   1.0000   1.0000   1.0000   1.0000   1.0000   1.0000   1.0000
     1.0000   1.0000   1.0000   1.0000   1.0000   1.0000

          k = 0.0000-0.5774 0.0000 ( 76430 PWs)   bands (ev):

   -74.0957 -74.0956 -71.2363 -71.2362 -46.2573 -46.2560 -45.9415 -45.9410
   -45.4951 -45.4936 -43.2303 -43.2286 -42.9435 -42.9429 -42.6335 -42.6316
   -15.1952 -15.1631 -14.9422 -14.9243 -14.5220 -14.5189 -14.5151 -14.5146
   -14.4527 -14.4491 -14.3568 -14.3495  -7.2598  -7.0416  -6.5245  -6.4430
    -6.3715  -6.3278  -6.1064  -6.0193  -5.9517  -5.9307  -5.5780  -5.4966
    -5.4798  -5.2449  -5.2385  -5.0315  -5.0119  -4.9388  -4.8304  -4.6524
    -4.5953  -4.4782  -4.3706  -4.2891  -4.2811  -3.9585  -3.8054  -3.7458
    -3.7053  -3.5907  -3.5650  -3.3884  -3.2887  -3.2368  -3.1519  -3.0374
    -2.8120  -2.7895  -2.6723  -2.5766  -2.5454  -2.2966

     occupation numbers 
     1.0000   1.0000   1.0000   1.0000   1.0000   1.0000   1.0000   1.0000
     1.0000   1.0000   1.0000   1.0000   1.0000   1.0000   1.0000   1.0000
     1.0000   1.0000   1.0000   1.0000   1.0000   1.0000   1.0000   1.0000
     1.0000   1.0000   1.0000   1.0000   1.0000   1.0000   1.0000   1.0000
     1.0000   1.0000   1.0000   1.0000   1.0000   1.0000   1.0000   1.0000
     1.0000   1.0000   1.0000   1.0000   1.0000   1.0000   1.0000   1.0000
     1.0000   1.0000   1.0000   1.0000   1.0000   1.0000   1.0000   1.0000
     1.0000   1.0000   1.0000   1.0000   1.0000   1.0000   1.0000   1.0000
     1.0000   1.0000   1.0000   1.0000   1.0000   1.0000

          k = 0.1667 0.2887 0.0000 ( 76409 PWs)   bands (ev):

   -74.0958 -74.0955 -71.2364 -71.2361 -46.2579 -46.2553 -45.9417 -45.9408
   -45.4958 -45.4929 -43.2311 -43.2278 -42.9438 -42.9426 -42.6345 -42.6307
   -15.4382 -15.4032 -14.6536 -14.6536 -14.6383 -14.6256 -14.5190 -14.5150
   -14.3413 -14.3372 -14.3274 -14.3219  -7.1797  -6.9529  -6.7345  -6.5258
    -6.4028  -6.3542  -6.2593  -6.2172  -6.1918  -6.0546  -5.6171  -5.5178
    -5.4633  -5.2632  -5.1380  -5.0684  -4.9095  -4.8564  -4.7056  -4.6305
    -4.5634  -4.4718  -4.2771  -4.2475  -4.2194  -4.1488  -4.0084  -3.9278
    -3.7618  -3.5925  -3.4298  -3.3776  -3.2490  -3.1455  -3.1044  -2.9235
    -2.7795  -2.7654  -2.6869  -2.6388  -2.4905  -2.2064

     occupation numbers 
     1.0000   1.0000   1.0000   1.0000   1.0000   1.0000   1.0000   1.0000
     1.0000   1.0000   1.0000   1.0000   1.0000   1.0000   1.0000   1.0000
     1.0000   1.0000   1.0000   1.0000   1.0000   1.0000   1.0000   1.0000
     1.0000   1.0000   1.0000   1.0000   1.0000   1.0000   1.0000   1.0000
     1.0000   1.0000   1.0000   1.0000   1.0000   1.0000   1.0000   1.0000
     1.0000   1.0000   1.0000   1.0000   1.0000   1.0000   1.0000   1.0000
     1.0000   1.0000   1.0000   1.0000   1.0000   1.0000   1.0000   1.0000
     1.0000   1.0000   1.0000   1.0000   1.0000   1.0000   1.0000   1.0000
     1.0000   1.0000   1.0000   1.0000   1.0000   1.0000

          k = 0.1667 0.4811 0.0000 ( 76402 PWs)   bands (ev):

   -74.0957 -74.0956 -71.2363 -71.2362 -46.2573 -46.2560 -45.9415 -45.9410
   -45.4951 -45.4936 -43.2303 -43.2286 -42.9435 -42.9429 -42.6335 -42.6316
   -15.2221 -15.1909 -14.8689 -14.8497 -14.5886 -14.5843 -14.5401 -14.5394
   -14.4108 -14.4078 -14.3550 -14.3491  -7.1050  -6.8875  -6.6240  -6.4246
    -6.3863  -6.3200  -6.2241  -6.1080  -6.0297  -6.0003  -5.6375  -5.5457
    -5.5074  -5.3685  -5.2180  -5.1395  -4.9459  -4.8489  -4.7548  -4.6241
    -4.5946  -4.4485  -4.2807  -4.2140  -4.1366  -3.9607  -3.8617  -3.7909
    -3.6991  -3.6017  -3.5491  -3.3823  -3.3489  -3.2686  -3.1177  -2.9897
    -2.8287  -2.7736  -2.6934  -2.5656  -2.5349  -2.2887

     occupation numbers 
     1.0000   1.0000   1.0000   1.0000   1.0000   1.0000   1.0000   1.0000
     1.0000   1.0000   1.0000   1.0000   1.0000   1.0000   1.0000   1.0000
     1.0000   1.0000   1.0000   1.0000   1.0000   1.0000   1.0000   1.0000
     1.0000   1.0000   1.0000   1.0000   1.0000   1.0000   1.0000   1.0000
     1.0000   1.0000   1.0000   1.0000   1.0000   1.0000   1.0000   1.0000
     1.0000   1.0000   1.0000   1.0000   1.0000   1.0000   1.0000   1.0000
     1.0000   1.0000   1.0000   1.0000   1.0000   1.0000   1.0000   1.0000
     1.0000   1.0000   1.0000   1.0000   1.0000   1.0000   1.0000   1.0000
     1.0000   1.0000   1.0000   1.0000   1.0000   1.0000

          k = 0.3333 0.5774 0.0000 ( 76443 PWs)   bands (ev):

   -74.0957 -74.0957 -71.2362 -71.2362 -46.2566 -46.2566 -45.9413 -45.9413
   -45.4944 -45.4944 -43.2295 -43.2295 -42.9432 -42.9432 -42.6326 -42.6326
   -15.0248 -15.0233 -14.9983 -14.9968 -14.6702 -14.6668 -14.4552 -14.4550
   -14.4534 -14.4534 -14.3815 -14.3756  -6.7948  -6.7404  -6.5794  -6.5383
    -6.3897  -6.2359  -6.1944  -6.1686  -6.0906  -6.0555  -5.7331  -5.6359
    -5.5341  -5.5242  -5.3492  -5.2434  -5.1227  -4.8922  -4.7160  -4.5374
    -4.3444  -4.3315  -4.3114  -4.1088  -3.9692  -3.9019  -3.8927  -3.7681
    -3.7048  -3.6805  -3.4488  -3.3818  -3.3244  -3.3148  -3.1173  -3.0344
    -2.9017  -2.7732  -2.6507  -2.5635  -2.3984  -2.3921

     occupation numbers 
     1.0000   1.0000   1.0000   1.0000   1.0000   1.0000   1.0000   1.0000
     1.0000   1.0000   1.0000   1.0000   1.0000   1.0000   1.0000   1.0000
     1.0000   1.0000   1.0000   1.0000   1.0000   1.0000   1.0000   1.0000
     1.0000   1.0000   1.0000   1.0000   1.0000   1.0000   1.0000   1.0000
     1.0000   1.0000   1.0000   1.0000   1.0000   1.0000   1.0000   1.0000
     1.0000   1.0000   1.0000   1.0000   1.0000   1.0000   1.0000   1.0000
     1.0000   1.0000   1.0000   1.0000   1.0000   1.0000   1.0000   1.0000
     1.0000   1.0000   1.0000   1.0000   1.0000   1.0000   1.0000   1.0000
     1.0000   1.0000   1.0000   1.0000   1.0000   1.0000

     highest occupied level (ev):    -2.0118

!    total energy              =    -512.14773982 Ry
     estimated scf accuracy    <          1.5E-09 Ry

     The total energy is the sum of the following terms:
     one-electron contribution =   -2094.74708953 Ry
     hartree contribution      =    1049.67365300 Ry
     xc contribution           =    -100.14453955 Ry
     ewald contribution        =     633.07023626 Ry

     total magnetization       =    -0.00     0.00     6.02 Bohr mag/cell
     absolute magnetization    =     6.92 Bohr mag/cell

     convergence has been achieved in  38 iterations

     Writing output data file ./CrI3.save/

     init_run     :    116.28s CPU    117.17s WALL (       1 calls)
     electrons    :  12193.19s CPU  12225.60s WALL (       1 calls)

     Called by init_run:
     wfcinit      :    114.26s CPU    115.10s WALL (       1 calls)
     wfcinit:atom :      0.20s CPU      0.33s WALL (       7 calls)
     wfcinit:wfcr :    112.49s CPU    113.03s WALL (       7 calls)
     potinit      :      0.93s CPU      0.96s WALL (       1 calls)
     hinit0       :      0.90s CPU      0.92s WALL (       1 calls)

     Called by electrons:
     c_bands      :  11237.92s CPU  11265.93s WALL (      38 calls)
     sum_band     :    919.73s CPU    923.87s WALL (      38 calls)
     v_of_rho     :      5.04s CPU      5.08s WALL (      39 calls)
     v_h          :      1.81s CPU      1.83s WALL (      39 calls)
     v_xc         :      3.23s CPU      3.25s WALL (      39 calls)
     mix_rho      :     28.60s CPU     28.79s WALL (      38 calls)

     Called by c_bands:
     init_us_2    :     24.71s CPU     24.83s WALL (     539 calls)
     cegterg      :  11061.85s CPU  11089.68s WALL (     266 calls)

     Called by sum_band:
     sum_band:wei :      0.00s CPU      0.00s WALL (      38 calls)
     sum_band:loo :    905.98s CPU    910.06s WALL (      38 calls)
     sum_band:buf :      8.36s CPU      8.37s WALL (     266 calls)
     sum_band:ini :     12.25s CPU     12.29s WALL (     266 calls)

     Called by *egterg:
     cdiaghg      :      9.10s CPU      9.13s WALL (    1457 calls)
     cegterg:over :   1175.33s CPU   1177.07s WALL (    1191 calls)
     cegterg:upda :    708.51s CPU    709.60s WALL (    1191 calls)
     cegterg:last :   1218.21s CPU   1219.88s WALL (     617 calls)
     h_psi        :   7655.28s CPU   7678.26s WALL (    1464 calls)
     g_psi        :      7.37s CPU      7.39s WALL (    1191 calls)

     Called by h_psi:
     h_psi:calbec :   1888.72s CPU   1890.94s WALL (    1464 calls)
     vloc_psi     :   3818.43s CPU   3836.88s WALL (    1464 calls)
     add_vuspsi   :   1925.58s CPU   1927.55s WALL (    1464 calls)

     General routines
     calbec       :   1888.72s CPU   1890.94s WALL (    1464 calls)
     fft          :     12.41s CPU     12.47s WALL (     345 calls)
     ffts         :      5.18s CPU      5.19s WALL (     152 calls)
     fftw         :   3777.90s CPU   3796.29s WALL (  244720 calls)

     Parallel routines
     fft_scatt_xy :    647.40s CPU    650.40s WALL (  245217 calls)
     fft_scatt_yz :    497.43s CPU    500.66s WALL (  245217 calls)

     PWSCF        :      3h25m CPU      3h25m WALL


   This run was terminated on:   2:11:35   2Dec2020            

=------------------------------------------------------------------------------=
   JOB DONE.
=------------------------------------------------------------------------------=
