
.Version 7.4.1 of ABINIT 
.(MPI version, prepared for a x86_64_linux_gnu5.4 computer) 

.Copyright (C) 1998-2013 ABINIT group . 
 ABINIT comes with ABSOLUTELY NO WARRANTY.
 It is free software, and you are welcome to redistribute it
 under certain conditions (GNU General Public License,
 see ~abinit/COPYING or http://www.gnu.org/copyleft/gpl.txt).

 ABINIT is a project of the Universite Catholique de Louvain,
 Corning Inc. and other collaborators, see ~abinit/doc/developers/contributors.txt .
 Please read ~abinit/doc/users/acknowledgments.html for suggested
 acknowledgments of the ABINIT effort.
 For more information, see http://www.abinit.org .

.Starting date : Thu 16 Nov 2017.
- ( at 17h26 )
  

 herald :  WARNING -
  The starting date is more than 3 years after the initial release
  of this version of ABINIT, namely Aug 2013.
  This version of ABINIT is not supported anymore.
  Action : please, switch to a more recent version of ABINIT.
- input  file    -> AlAs.in
- output file    -> AlAs.out
- root for input  files -> alas-i
- root for output files -> alas-o


 DATASET    1 : space group F-4 3 m (#216); Bravais cF (face-center cubic)
================================================================================
 Values of the parameters that define the memory need for DATASET  1.
   intxc =         0  ionmov =         0    iscf =         7 xclevel =         1
  lmnmax =         4   lnmax =         4   mband =         5  mffmem =         1
P  mgfft =        32   mkmem =        60 mpssoang=         4     mpw =      1321
  mqgrid =      3001   natom =         2    nfft =     32768    nkpt =        60
  nloalg =         4  nspden =         1 nspinor =         1  nsppol =         1
    nsym =        24  n1xccc =         0  ntypat =         2  occopt =         1
================================================================================
P This job should need less than                      17.092 Mbytes of memory.
  Rough estimation (10% accuracy) of disk space for files :
_ WF disk file :      6.049 Mbytes ; DEN or POT disk file :      0.252 Mbytes.
================================================================================


 DATASET    2 : space group F-4 3 m (#216); Bravais cF (face-center cubic)
================================================================================
 Values of the parameters that define the memory need for DATASET  2.
   intxc =         0  ionmov =         0    iscf =        -2 xclevel =         1
  lmnmax =         4   lnmax =         4   mband =        15  mffmem =         1
P  mgfft =        32   mkmem =        29 mpssoang=         4     mpw =      1323
  mqgrid =      3001   natom =         2    nfft =     32768    nkpt =        29
  nloalg =         4  nspden =         1 nspinor =         1  nsppol =         1
    nsym =        24  n1xccc =         0  ntypat =         2  occopt =         1
================================================================================
P This job should need less than                      15.386 Mbytes of memory.
  Rough estimation (10% accuracy) of disk space for files :
_ WF disk file :      8.784 Mbytes ; DEN or POT disk file :      0.252 Mbytes.
================================================================================

--------------------------------------------------------------------------------
------------- Echo of variables that govern the present computation ------------
--------------------------------------------------------------------------------
-
- outvars: echo of selected default values                                      
-   accesswff0 =  0 , fftalg0 =112 , wfoptalg0 =  0
-
- outvars: echo of global parameters not present in the input file              
-  max_nthreads =    0
-
 -outvars: echo values of preprocessed input variables --------
            acell      1.0695900000E+01  1.0695900000E+01  1.0695900000E+01 Bohr
              amu      2.69815390E+01  7.49215900E+01
           diemac      1.20000000E+01
             ecut      2.00000000E+01 Hartree
           getden1          0
           getden2         -1
             iscf1          7
             iscf2         -2
           istwfk2       1    0    0    0    1    0    0    0    0    0
                         0    0    0    0    0    0    0    0    0    0
                         1    0    0    0    0    0    0    0    0
                       outvar_i_n : Printing only first  50 k-points.
              ixc           7
           jdtset        1    2
              kpt1    -6.25000000E-02 -1.25000000E-01  0.00000000E+00
                      -6.25000000E-02 -2.50000000E-01  0.00000000E+00
                      -1.25000000E-01 -1.87500000E-01  0.00000000E+00
                      -6.25000000E-02 -1.87500000E-01  6.25000000E-02
                      -6.25000000E-02 -3.75000000E-01  0.00000000E+00
                      -1.25000000E-01 -3.12500000E-01  0.00000000E+00
                      -6.25000000E-02 -3.12500000E-01  6.25000000E-02
                      -1.87500000E-01 -2.50000000E-01  0.00000000E+00
                      -1.25000000E-01 -2.50000000E-01  6.25000000E-02
                      -6.25000000E-02 -2.50000000E-01  1.25000000E-01
                      -6.25000000E-02  5.00000000E-01  0.00000000E+00
                      -1.25000000E-01 -4.37500000E-01  0.00000000E+00
                      -6.25000000E-02 -4.37500000E-01  6.25000000E-02
                      -1.87500000E-01 -3.75000000E-01  0.00000000E+00
                      -1.25000000E-01 -3.75000000E-01  6.25000000E-02
                      -6.25000000E-02 -3.75000000E-01  1.25000000E-01
                      -2.50000000E-01 -3.12500000E-01  0.00000000E+00
                      -1.87500000E-01 -3.12500000E-01  6.25000000E-02
                      -1.25000000E-01 -3.12500000E-01  1.25000000E-01
                      -6.25000000E-02 -3.12500000E-01  1.87500000E-01
                      -6.25000000E-02  3.75000000E-01  0.00000000E+00
                      -1.25000000E-01  4.37500000E-01  0.00000000E+00
                      -1.87500000E-01  5.00000000E-01  0.00000000E+00
                      -1.25000000E-01  5.00000000E-01  6.25000000E-02
                      -2.50000000E-01 -4.37500000E-01  0.00000000E+00
                      -1.87500000E-01 -4.37500000E-01  6.25000000E-02
                      -1.25000000E-01 -4.37500000E-01  1.25000000E-01
                      -6.25000000E-02 -4.37500000E-01  1.87500000E-01
                      -3.12500000E-01 -3.75000000E-01  0.00000000E+00
                      -2.50000000E-01 -3.75000000E-01  6.25000000E-02
                      -1.87500000E-01 -3.75000000E-01  1.25000000E-01
                      -1.25000000E-01 -3.75000000E-01  1.87500000E-01
                      -6.25000000E-02 -3.75000000E-01  2.50000000E-01
                      -6.25000000E-02  2.50000000E-01  0.00000000E+00
                      -1.25000000E-01  3.12500000E-01  0.00000000E+00
                      -1.87500000E-01  3.75000000E-01  0.00000000E+00
                      -2.50000000E-01  4.37500000E-01  0.00000000E+00
                      -3.12500000E-01  5.00000000E-01  0.00000000E+00
                      -2.50000000E-01  5.00000000E-01  6.25000000E-02
                      -1.87500000E-01  5.00000000E-01  1.25000000E-01
                      -3.75000000E-01 -4.37500000E-01  0.00000000E+00
                      -3.12500000E-01 -4.37500000E-01  6.25000000E-02
                      -2.50000000E-01 -4.37500000E-01  1.25000000E-01
                      -1.87500000E-01 -4.37500000E-01  1.87500000E-01
                      -1.25000000E-01 -4.37500000E-01  2.50000000E-01
                      -6.25000000E-02 -4.37500000E-01  3.12500000E-01
                      -6.25000000E-02  1.25000000E-01  0.00000000E+00
                      -1.25000000E-01  1.87500000E-01  0.00000000E+00
                      -1.87500000E-01  2.50000000E-01  0.00000000E+00
                      -2.50000000E-01  3.12500000E-01  0.00000000E+00
              kpt2     0.00000000E+00  0.00000000E+00  0.00000000E+00
                       1.25000000E-01  0.00000000E+00  0.00000000E+00
                       2.50000000E-01  0.00000000E+00  0.00000000E+00
                       3.75000000E-01  0.00000000E+00  0.00000000E+00
                       5.00000000E-01  0.00000000E+00  0.00000000E+00
                       1.25000000E-01  1.25000000E-01  0.00000000E+00
                       2.50000000E-01  1.25000000E-01  0.00000000E+00
                       3.75000000E-01  1.25000000E-01  0.00000000E+00
                       5.00000000E-01  1.25000000E-01  0.00000000E+00
                      -3.75000000E-01  1.25000000E-01  0.00000000E+00
                      -2.50000000E-01  1.25000000E-01  0.00000000E+00
                      -1.25000000E-01  1.25000000E-01  0.00000000E+00
                       2.50000000E-01  2.50000000E-01  0.00000000E+00
                       3.75000000E-01  2.50000000E-01  0.00000000E+00
                       5.00000000E-01  2.50000000E-01  0.00000000E+00
                      -3.75000000E-01  2.50000000E-01  0.00000000E+00
                      -2.50000000E-01  2.50000000E-01  0.00000000E+00
                       3.75000000E-01  3.75000000E-01  0.00000000E+00
                       5.00000000E-01  3.75000000E-01  0.00000000E+00
                      -3.75000000E-01  3.75000000E-01  0.00000000E+00
                       5.00000000E-01  5.00000000E-01  0.00000000E+00
                       3.75000000E-01  2.50000000E-01  1.25000000E-01
                       5.00000000E-01  2.50000000E-01  1.25000000E-01
                      -3.75000000E-01  2.50000000E-01  1.25000000E-01
                       5.00000000E-01  3.75000000E-01  1.25000000E-01
                      -3.75000000E-01  3.75000000E-01  1.25000000E-01
                      -2.50000000E-01  3.75000000E-01  1.25000000E-01
                      -3.75000000E-01  5.00000000E-01  1.25000000E-01
                      -2.50000000E-01  5.00000000E-01  2.50000000E-01
                       outvar_i_n : Printing only first  50 k-points.
         kptrlatt1       8   -8    8     -8    8    8     -8   -8    8
         kptrlatt2       8    0    0      0    8    0      0    0    8
          kptrlen1     8.55672000E+01
          kptrlen2     6.05051474E+01
          kssform1          1
          kssform2          3
P           mkmem1         60
P           mkmem2         29
            natom           2
            nband1          5
            nband2         15
         nbandkss1          0
         nbandkss2         13
           nbdbuf1          0
           nbdbuf2          2
           ndtset           2
            ngfft          32      32      32
             nkpt1         60
             nkpt2         29
            nstep         100
             nsym          24
           ntypat           2
              occ      2.000000  2.000000  2.000000  2.000000  0.000000
            rprim     -5.0000000000E-01  0.0000000000E+00  5.0000000000E-01
                       0.0000000000E+00  5.0000000000E-01  5.0000000000E-01
                      -5.0000000000E-01  5.0000000000E-01  0.0000000000E+00
           shiftk1     5.00000000E-01  5.00000000E-01  5.00000000E-01
           shiftk2     0.00000000E+00  0.00000000E+00  0.00000000E+00
          spgroup         216
        symmorphi           0
           symrel      1  0  0   0  1  0   0  0  1       0 -1  1   0 -1  0   1 -1  0
                      -1  0  0  -1  0  1  -1  1  0       0  1 -1   1  0 -1   0  0 -1
                      -1  0  0  -1  1  0  -1  0  1       0 -1  1   1 -1  0   0 -1  0
                       1  0  0   0  0  1   0  1  0       0  1 -1   0  0 -1   1  0 -1
                      -1  0  1  -1  1  0  -1  0  0       0 -1  0   1 -1  0   0 -1  1
                       1  0 -1   0  0 -1   0  1 -1       0  1  0   0  0  1   1  0  0
                       1  0 -1   0  1 -1   0  0 -1       0 -1  0   0 -1  1   1 -1  0
                      -1  0  1  -1  0  0  -1  1  0       0  1  0   1  0  0   0  0  1
                       0  0 -1   0  1 -1   1  0 -1       1 -1  0   0 -1  1   0 -1  0
                       0  0  1   1  0  0   0  1  0      -1  1  0  -1  0  0  -1  0  1
                       0  0  1   0  1  0   1  0  0       1 -1  0   0 -1  0   0 -1  1
                       0  0 -1   1  0 -1   0  1 -1      -1  1  0  -1  0  1  -1  0  0
           toldfe1     1.00000000E-06 Hartree
           toldfe2     0.00000000E+00 Hartree
           tolwfr1     0.00000000E+00
           tolwfr2     1.00000000E-10
            typat      1  2
              wtk1       0.01172    0.01172    0.01172    0.02344    0.01172    0.01172
                         0.02344    0.01172    0.02344    0.02344    0.01172    0.01172
                         0.02344    0.01172    0.02344    0.02344    0.01172    0.02344
                         0.02344    0.02344    0.01172    0.01172    0.01172    0.02344
                         0.01172    0.02344    0.02344    0.02344    0.01172    0.02344
                         0.02344    0.02344    0.02344    0.01172    0.01172    0.01172
                         0.01172    0.01172    0.02344    0.02344    0.01172    0.02344
                         0.02344    0.02344    0.02344    0.02344    0.01172    0.01172
                         0.01172    0.01172
              wtk2       0.00195    0.01563    0.01563    0.01563    0.00781    0.01172
                         0.04688    0.04688    0.04688    0.04688    0.04688    0.02344
                         0.01172    0.04688    0.04688    0.04688    0.02344    0.01172
                         0.04688    0.02344    0.00586    0.04688    0.09375    0.04688
                         0.04688    0.09375    0.04688    0.02344    0.01172
                       outvars : Printing only first  50 k-points.
           xangst      0.0000000000E+00  0.0000000000E+00  0.0000000000E+00
                      -1.4150066263E+00  1.4150066263E+00  1.4150066263E+00
            xcart      0.0000000000E+00  0.0000000000E+00  0.0000000000E+00
                      -2.6739750000E+00  2.6739750000E+00  2.6739750000E+00
             xred      0.0000000000E+00  0.0000000000E+00  0.0000000000E+00
                       2.5000000000E-01  2.5000000000E-01  2.5000000000E-01
            znucl       13.00000   33.00000

================================================================================

 chkinp: Checking input parameters for consistency, jdtset=   1.

 chkinp: Checking input parameters for consistency, jdtset=   2.

================================================================================
== DATASET  1 ==================================================================
-   nproc =    1

 Exchange-correlation functional for the present dataset will be:
  LDA: Perdew-Wang 92 LSD fit to Ceperley-Alder data - ixc=7
 Citation for XC functional:
  J.P.Perdew and Y.Wang, PRB 45, 13244 (1992)

 Real(R)+Recip(G) space primitive vectors, cartesian coordinates (Bohr,Bohr^-1):
 R(1)= -5.3479500  0.0000000  5.3479500  G(1)= -0.0934938 -0.0934938  0.0934938
 R(2)=  0.0000000  5.3479500  5.3479500  G(2)=  0.0934938  0.0934938  0.0934938
 R(3)= -5.3479500  5.3479500  0.0000000  G(3)= -0.0934938  0.0934938 -0.0934938
 Unit cell volume ucvol=  3.0590883E+02 bohr^3
 Angles (23,13,12)=  6.00000000E+01  6.00000000E+01  6.00000000E+01 degrees

 getcut: wavevector=  0.0000  0.0000  0.0000  ngfft=  32  32  32
         ecut(hartree)=     20.000   => boxcut(ratio)=   2.10168

--- Pseudopotential description ------------------------------------------------
- pspini: atom type   1  psp file is ./13-Al.LDA.fhi
- pspatm: opening atomic psp file    ./13-Al.LDA.fhi
- aluminium, fhi98PP : Trouiller-Martins-type, LDA Ceperley/Alder Perdew/Wang (1992), l= 2 local
- 13.00000   3.00000     21003                znucl, zion, pspdat
    6    7    3    2       493   0.00000      pspcod,pspxc,lmax,lloc,mmax,r2well
    0.00000000000000    0.00000000000000    0.00000000000000   rchrg,fchrg,qchrg
  1.024700          amesh (Hamman grid)
 pspatm: epsatm=   -3.73067947
         --- l  ekb(1:nproj) -->
             0    2.872053
             1    1.412891
             3   -1.138772
 pspatm: atomic psp has been read  and splines computed

- pspini: atom type   2  psp file is ./33-As.LDA.fhi
- pspatm: opening atomic psp file    ./33-As.LDA.fhi
- arsenic, fhi98PP : Trouiller-Martins-type, LDA Ceperley/Alder Perdew/Wang (1992), l= 2 local
- 33.00000   5.00000     11001                znucl, zion, pspdat
    6    7    3    2       531   0.00000      pspcod,pspxc,lmax,lloc,mmax,r2well
    0.00000000000000    0.00000000000000    0.00000000000000   rchrg,fchrg,qchrg
  1.024700          amesh (Hamman grid)
 pspatm: epsatm=   13.90965760
         --- l  ekb(1:nproj) -->
             0    9.939809
             1   20.273736
             3   -0.735582
 pspatm: atomic psp has been read  and splines computed

   8.14318250E+01                                ecore*ucvol(ha*bohr**3)
--------------------------------------------------------------------------------

P newkpt: treating      5 bands with npw=    1311 for ikpt=   1 by node    0
P newkpt: treating      5 bands with npw=    1319 for ikpt=   2 by node    0
P newkpt: treating      5 bands with npw=    1313 for ikpt=   3 by node    0
P newkpt: treating      5 bands with npw=    1320 for ikpt=   4 by node    0
P newkpt: treating      5 bands with npw=    1309 for ikpt=   5 by node    0
P newkpt: treating      5 bands with npw=    1314 for ikpt=   6 by node    0
P newkpt: treating      5 bands with npw=    1313 for ikpt=   7 by node    0
P newkpt: treating      5 bands with npw=    1317 for ikpt=   8 by node    0
P newkpt: treating      5 bands with npw=    1315 for ikpt=   9 by node    0
P newkpt: treating      5 bands with npw=    1314 for ikpt=  10 by node    0
P newkpt: treating      5 bands with npw=    1311 for ikpt=  11 by node    0
P newkpt: treating      5 bands with npw=    1305 for ikpt=  12 by node    0
P newkpt: treating      5 bands with npw=    1308 for ikpt=  13 by node    0
P newkpt: treating      5 bands with npw=    1304 for ikpt=  14 by node    0
P newkpt: treating      5 bands with npw=    1304 for ikpt=  15 by node    0
P newkpt: treating      5 bands with npw=    1306 for ikpt=  16 by node    0
P newkpt: treating      5 bands with npw=    1310 for ikpt=  17 by node    0
P newkpt: treating      5 bands with npw=    1309 for ikpt=  18 by node    0
P newkpt: treating      5 bands with npw=    1303 for ikpt=  19 by node    0
P newkpt: treating      5 bands with npw=    1308 for ikpt=  20 by node    0
P newkpt: treating      5 bands with npw=    1301 for ikpt=  21 by node    0
P newkpt: treating      5 bands with npw=    1303 for ikpt=  22 by node    0
P newkpt: treating      5 bands with npw=    1302 for ikpt=  23 by node    0
P newkpt: treating      5 bands with npw=    1302 for ikpt=  24 by node    0
P newkpt: treating      5 bands with npw=    1302 for ikpt=  25 by node    0
P newkpt: treating      5 bands with npw=    1304 for ikpt=  26 by node    0
P newkpt: treating      5 bands with npw=    1303 for ikpt=  27 by node    0
P newkpt: treating      5 bands with npw=    1300 for ikpt=  28 by node    0
P newkpt: treating      5 bands with npw=    1301 for ikpt=  29 by node    0
P newkpt: treating      5 bands with npw=    1306 for ikpt=  30 by node    0
P newkpt: treating      5 bands with npw=    1304 for ikpt=  31 by node    0
P newkpt: treating      5 bands with npw=    1308 for ikpt=  32 by node    0
P newkpt: treating      5 bands with npw=    1305 for ikpt=  33 by node    0
P newkpt: treating      5 bands with npw=    1312 for ikpt=  34 by node    0
P newkpt: treating      5 bands with npw=    1306 for ikpt=  35 by node    0
P newkpt: treating      5 bands with npw=    1301 for ikpt=  36 by node    0
P newkpt: treating      5 bands with npw=    1303 for ikpt=  37 by node    0
P newkpt: treating      5 bands with npw=    1302 for ikpt=  38 by node    0
P newkpt: treating      5 bands with npw=    1300 for ikpt=  39 by node    0
P newkpt: treating      5 bands with npw=    1298 for ikpt=  40 by node    0
P newkpt: treating      5 bands with npw=    1305 for ikpt=  41 by node    0
P newkpt: treating      5 bands with npw=    1305 for ikpt=  42 by node    0
P newkpt: treating      5 bands with npw=    1309 for ikpt=  43 by node    0
P newkpt: treating      5 bands with npw=    1304 for ikpt=  44 by node    0
P newkpt: treating      5 bands with npw=    1297 for ikpt=  45 by node    0
P newkpt: treating      5 bands with npw=    1297 for ikpt=  46 by node    0
P newkpt: treating      5 bands with npw=    1311 for ikpt=  47 by node    0
P newkpt: treating      5 bands with npw=    1319 for ikpt=  48 by node    0
P newkpt: treating      5 bands with npw=    1316 for ikpt=  49 by node    0
P newkpt: treating      5 bands with npw=    1308 for ikpt=  50 by node    0
 newkpt: prtvol=0 or 1, do not print more k-points.

_setup2: Arith. and geom. avg. npw (full set) are    1306.285    1306.273

================================================================================

     iter   Etot(hartree)      deltaE(h)  residm     vres2
 ETOT  1  -8.5113981898797    -8.511E+00 1.209E-01 2.177E+01
 ETOT  2  -8.5226722310660    -1.127E-02 2.075E-02 8.282E-01
 ETOT  3  -8.5228523263808    -1.801E-04 2.017E-03 6.065E-02
 ETOT  4  -8.5228615900913    -9.264E-06 1.034E-03 9.397E-04
 ETOT  5  -8.5228616891097    -9.902E-08 6.626E-04 4.680E-06
 ETOT  6  -8.5228616896544    -5.447E-10 2.652E-04 3.156E-07

 At SCF step    6, etot is converged : 
  for the second time, diff in etot=  5.447E-10 < toldfe=  1.000E-06

 Cartesian components of stress tensor (hartree/bohr^3)
  sigma(1 1)=  5.57745891E-05  sigma(3 2)=  0.00000000E+00
  sigma(2 2)=  5.57745891E-05  sigma(3 1)=  0.00000000E+00
  sigma(3 3)=  5.57745891E-05  sigma(2 1)=  0.00000000E+00

================================================================================

 ----iterations are completed or convergence reached----

 Mean square residual over all n,k,spin=   1.9528E-06; max=  2.6521E-04
  -0.0625 -0.1250  0.0000    1  1.75321E-06 kpt; spin; max resid(k); each band:
  6.68E-12 1.42E-11 1.23E-11 8.75E-12 1.75E-06
  -0.0625 -0.2500  0.0000    1  5.41947E-08 kpt; spin; max resid(k); each band:
  5.04E-12 1.20E-11 7.91E-12 4.31E-12 5.42E-08
  -0.1250 -0.1875  0.0000    1  2.65207E-04 kpt; spin; max resid(k); each band:
  3.93E-12 2.19E-11 1.38E-11 3.88E-11 2.65E-04
  -0.0625 -0.1875  0.0625    1  3.14592E-05 kpt; spin; max resid(k); each band:
  7.24E-12 1.93E-11 7.26E-12 1.04E-11 3.15E-05
  -0.0625 -0.3750  0.0000    1  8.91474E-09 kpt; spin; max resid(k); each band:
  3.80E-12 7.26E-12 3.31E-12 6.35E-12 8.91E-09
  -0.1250 -0.3125  0.0000    1  6.01962E-08 kpt; spin; max resid(k); each band:
  4.70E-12 9.87E-12 1.50E-11 6.41E-12 6.02E-08
  -0.0625 -0.3125  0.0625    1  6.12041E-08 kpt; spin; max resid(k); each band:
  4.53E-12 6.74E-12 4.51E-12 6.96E-12 6.12E-08
  -0.1875 -0.2500  0.0000    1  7.61598E-07 kpt; spin; max resid(k); each band:
  3.09E-12 6.47E-12 1.61E-11 5.40E-12 7.62E-07
  -0.1250 -0.2500  0.0625    1  9.36795E-05 kpt; spin; max resid(k); each band:
  3.87E-12 1.15E-11 2.94E-11 1.93E-11 9.37E-05
  -0.0625 -0.2500  0.1250    1  1.20191E-04 kpt; spin; max resid(k); each band:
  6.10E-12 1.16E-11 1.37E-11 2.51E-12 1.20E-04
  -0.0625  0.5000  0.0000    1  2.07546E-09 kpt; spin; max resid(k); each band:
  2.09E-12 7.45E-12 4.25E-12 3.88E-12 2.08E-09
  -0.1250 -0.4375  0.0000    1  7.69681E-08 kpt; spin; max resid(k); each band:
  3.41E-12 7.65E-12 2.48E-12 5.00E-12 7.70E-08
  -0.0625 -0.4375  0.0625    1  8.48786E-08 kpt; spin; max resid(k); each band:
  2.70E-12 7.39E-12 2.51E-12 9.35E-12 8.49E-08
  -0.1875 -0.3750  0.0000    1  3.25768E-08 kpt; spin; max resid(k); each band:
  3.57E-12 5.07E-12 3.59E-12 5.21E-12 3.26E-08
  -0.1250 -0.3750  0.0625    1  2.03014E-07 kpt; spin; max resid(k); each band:
  3.83E-12 6.29E-12 3.28E-12 8.00E-12 2.03E-07
  -0.0625 -0.3750  0.1250    1  1.30985E-06 kpt; spin; max resid(k); each band:
  3.44E-12 5.77E-12 5.69E-12 5.84E-12 1.31E-06
  -0.2500 -0.3125  0.0000    1  4.73724E-07 kpt; spin; max resid(k); each band:
  3.09E-12 1.88E-12 9.43E-12 5.10E-12 4.74E-07
  -0.1875 -0.3125  0.0625    1  5.74275E-07 kpt; spin; max resid(k); each band:
  3.35E-12 4.73E-12 5.91E-12 1.20E-11 5.74E-07
  -0.1250 -0.3125  0.1250    1  4.42438E-06 kpt; spin; max resid(k); each band:
  3.20E-12 3.60E-12 3.90E-12 9.10E-12 4.42E-06
  -0.0625 -0.3125  0.1875    1  1.57211E-06 kpt; spin; max resid(k); each band:
  4.20E-12 3.08E-12 4.26E-12 1.01E-11 1.57E-06
  -0.0625  0.3750  0.0000    1  9.53566E-09 kpt; spin; max resid(k); each band:
  3.39E-12 7.14E-12 4.88E-12 2.03E-12 9.54E-09
  -0.1250  0.4375  0.0000    1  7.38831E-08 kpt; spin; max resid(k); each band:
  2.17E-12 6.74E-12 3.08E-12 2.65E-12 7.39E-08
  -0.1875  0.5000  0.0000    1  2.07737E-09 kpt; spin; max resid(k); each band:
  2.82E-12 6.25E-12 4.49E-12 4.03E-12 2.08E-09
  -0.1250  0.5000  0.0625    1  4.76951E-07 kpt; spin; max resid(k); each band:
  2.10E-12 6.48E-12 3.41E-12 1.34E-11 4.77E-07
  -0.2500 -0.4375  0.0000    1  1.62266E-08 kpt; spin; max resid(k); each band:
  3.03E-12 4.36E-12 1.06E-11 4.23E-12 1.62E-08
  -0.1875 -0.4375  0.0625    1  2.89014E-08 kpt; spin; max resid(k); each band:
  2.85E-12 3.88E-12 5.92E-12 1.14E-11 2.89E-08
  -0.1250 -0.4375  0.1250    1  6.88954E-06 kpt; spin; max resid(k); each band:
  2.47E-12 4.24E-12 3.58E-12 1.56E-11 6.89E-06
  -0.0625 -0.4375  0.1875    1  5.90419E-08 kpt; spin; max resid(k); each band:
  1.79E-12 5.12E-12 7.37E-12 7.96E-12 5.90E-08
  -0.3125 -0.3750  0.0000    1  4.79233E-08 kpt; spin; max resid(k); each band:
  2.60E-12 1.40E-12 1.86E-11 3.78E-12 4.79E-08
  -0.2500 -0.3750  0.0625    1  1.30979E-07 kpt; spin; max resid(k); each band:
  2.61E-12 2.19E-12 9.76E-12 1.51E-11 1.31E-07
  -0.1875 -0.3750  0.1250    1  2.82899E-07 kpt; spin; max resid(k); each band:
  2.71E-12 3.94E-12 6.30E-12 2.21E-11 2.83E-07
  -0.1250 -0.3750  0.1875    1  3.98329E-05 kpt; spin; max resid(k); each band:
  2.52E-12 2.08E-12 1.19E-11 8.11E-12 3.98E-05
  -0.0625 -0.3750  0.2500    1  2.09812E-09 kpt; spin; max resid(k); each band:
  2.23E-12 2.63E-12 1.27E-11 5.33E-12 2.10E-09
  -0.0625  0.2500  0.0000    1  6.66440E-09 kpt; spin; max resid(k); each band:
  4.85E-12 6.64E-12 5.51E-12 6.06E-12 6.66E-09
  -0.1250  0.3125  0.0000    1  6.61679E-08 kpt; spin; max resid(k); each band:
  3.33E-12 6.04E-12 4.73E-12 2.97E-12 6.62E-08
  -0.1875  0.3750  0.0000    1  1.47638E-09 kpt; spin; max resid(k); each band:
  2.46E-12 5.69E-12 5.57E-12 3.84E-12 1.48E-09
  -0.2500  0.4375  0.0000    1  3.35039E-10 kpt; spin; max resid(k); each band:
  2.14E-12 4.75E-12 1.11E-11 3.69E-12 3.35E-10
  -0.3125  0.5000  0.0000    1  5.05934E-09 kpt; spin; max resid(k); each band:
  2.44E-12 2.63E-12 1.42E-11 3.87E-12 5.06E-09
  -0.2500  0.5000  0.0625    1  8.32339E-09 kpt; spin; max resid(k); each band:
  2.32E-12 3.16E-12 1.33E-11 1.05E-11 8.32E-09
  -0.1875  0.5000  0.1250    1  1.56339E-08 kpt; spin; max resid(k); each band:
  2.14E-12 3.97E-12 1.07E-11 1.42E-11 1.56E-08
  -0.3750 -0.4375  0.0000    1  9.01929E-08 kpt; spin; max resid(k); each band:
  2.24E-12 1.32E-12 1.97E-11 4.88E-12 9.02E-08
  -0.3125 -0.4375  0.0625    1  1.09297E-07 kpt; spin; max resid(k); each band:
  2.02E-12 2.26E-12 1.54E-11 1.10E-11 1.09E-07
  -0.2500 -0.4375  0.1250    1  5.75629E-07 kpt; spin; max resid(k); each band:
  3.12E-12 2.39E-12 1.08E-11 1.23E-11 5.76E-07
  -0.1875 -0.4375  0.1875    1  8.74624E-06 kpt; spin; max resid(k); each band:
  2.36E-12 1.42E-12 1.13E-11 7.17E-12 8.75E-06
  -0.1250 -0.4375  0.2500    1  4.08142E-08 kpt; spin; max resid(k); each band:
  1.83E-12 1.98E-12 1.50E-11 7.30E-12 4.08E-08
  -0.0625 -0.4375  0.3125    1  1.08734E-09 kpt; spin; max resid(k); each band:
  1.72E-12 2.04E-12 1.69E-11 7.56E-12 1.09E-09
  -0.0625  0.1250  0.0000    1  4.49004E-07 kpt; spin; max resid(k); each band:
  5.74E-12 1.42E-11 1.19E-11 7.13E-12 4.49E-07
  -0.1250  0.1875  0.0000    1  2.11183E-07 kpt; spin; max resid(k); each band:
  5.27E-12 9.76E-12 6.95E-12 4.57E-12 2.11E-07
  -0.1875  0.2500  0.0000    1  4.46617E-06 kpt; spin; max resid(k); each band:
  4.17E-12 3.31E-12 4.20E-12 3.48E-12 4.47E-06
  -0.2500  0.3125  0.0000    1  2.30654E-09 kpt; spin; max resid(k); each band:
  2.51E-12 2.75E-12 1.08E-11 2.45E-13 2.31E-09
 outwf : prtvol=0 or 1, do not print more k-points.

 reduced coordinates (array xred) for    2 atoms
       0.000000000000      0.000000000000      0.000000000000
       0.250000000000      0.250000000000      0.250000000000
 rms dE/dt=  0.0000E+00; max dE/dt=  0.0000E+00; dE/dt below (all hartree)
    1       0.000000000000      0.000000000000      0.000000000000
    2       0.000000000000      0.000000000000      0.000000000000

 cartesian coordinates (angstrom) at end:
    1      0.00000000000000     0.00000000000000     0.00000000000000
    2     -1.41500662633945     1.41500662633945     1.41500662633945

 cartesian forces (hartree/bohr) at end:
    1     -0.00000000000000    -0.00000000000000    -0.00000000000000
    2     -0.00000000000000    -0.00000000000000    -0.00000000000000
 frms,max,avg= 0.0000000E+00 0.0000000E+00   0.000E+00  0.000E+00  0.000E+00 h/b

 cartesian forces (eV/Angstrom) at end:
    1     -0.00000000000000    -0.00000000000000    -0.00000000000000
    2     -0.00000000000000    -0.00000000000000    -0.00000000000000
 frms,max,avg= 0.0000000E+00 0.0000000E+00   0.000E+00  0.000E+00  0.000E+00 e/A
 length scales= 10.695900000000 10.695900000000 10.695900000000 bohr
              =  5.660026505358  5.660026505358  5.660026505358 angstroms
 prteigrs : about to open file alas-o_DS1_EIG
 Fermi (or HOMO) energy (hartree) =   0.13522   Average Vxc (hartree)=  -0.31823
 Eigenvalues (hartree) for nkpt=  60  k points:
 kpt#   1, nband=  5, wtk=  0.01172, kpt= -0.0625 -0.1250  0.0000 (reduced coord)
  -0.29538   0.09182   0.12564   0.12865   0.24470
 kpt#   2, nband=  5, wtk=  0.01172, kpt= -0.0625 -0.2500  0.0000 (reduced coord)
  -0.28139   0.02236   0.11288   0.11783   0.24275
 kpt#   3, nband=  5, wtk=  0.01172, kpt= -0.1250 -0.1875  0.0000 (reduced coord)
  -0.28810   0.06070   0.11097   0.11250   0.26212
 kpt#   4, nband=  5, wtk=  0.02344, kpt= -0.0625 -0.1875  0.0625 (reduced coord)
  -0.28468   0.04134   0.10052   0.12329   0.26136
 kpt#   5, nband=  5, wtk=  0.01172, kpt= -0.0625 -0.3750  0.0000 (reduced coord)
  -0.26159  -0.03690   0.10461   0.10469   0.22944
 kpt#   6, nband=  5, wtk=  0.01172, kpt= -0.1250 -0.3125  0.0000 (reduced coord)
  -0.27168  -0.00032   0.09678   0.09925   0.25168
 kpt#   7, nband=  5, wtk=  0.02344, kpt= -0.0625 -0.3125  0.0625 (reduced coord)
  -0.26619  -0.01895   0.08547   0.11085   0.24848
 kpt#   8, nband=  5, wtk=  0.01172, kpt= -0.1875 -0.2500  0.0000 (reduced coord)
  -0.27765   0.02948   0.09450   0.09540   0.24309
 kpt#   9, nband=  5, wtk=  0.02344, kpt= -0.1250 -0.2500  0.0625 (reduced coord)
  -0.27457   0.01528   0.08349   0.10532   0.25848
 kpt#  10, nband=  5, wtk=  0.02344, kpt= -0.0625 -0.2500  0.1250 (reduced coord)
  -0.26866  -0.00292   0.06671   0.11384   0.27211
 kpt#  11, nband=  5, wtk=  0.01172, kpt= -0.0625  0.5000  0.0000 (reduced coord)
  -0.24821  -0.06670   0.09598   0.10380   0.22328
 kpt#  12, nband=  5, wtk=  0.01172, kpt= -0.1250 -0.4375  0.0000 (reduced coord)
  -0.25264  -0.04893   0.08003   0.09529   0.24285
 kpt#  13, nband=  5, wtk=  0.02344, kpt= -0.0625 -0.4375  0.0625 (reduced coord)
  -0.24901  -0.05937   0.07915   0.10119   0.24004
 kpt#  14, nband=  5, wtk=  0.01172, kpt= -0.1875 -0.3750  0.0000 (reduced coord)
  -0.25991  -0.02017   0.07211   0.08657   0.24197
 kpt#  15, nband=  5, wtk=  0.02344, kpt= -0.1250 -0.3750  0.0625 (reduced coord)
  -0.25566  -0.03445   0.06627   0.09372   0.25314
 kpt#  16, nband=  5, wtk=  0.02344, kpt= -0.0625 -0.3750  0.1250 (reduced coord)
  -0.25011  -0.04653   0.05461   0.09945   0.25976
 kpt#  17, nband=  5, wtk=  0.01172, kpt= -0.2500 -0.3125  0.0000 (reduced coord)
  -0.26476  -0.00023   0.07817   0.08137   0.22506
 kpt#  18, nband=  5, wtk=  0.02344, kpt= -0.1875 -0.3125  0.0625 (reduced coord)
  -0.26220  -0.00901   0.06757   0.08648   0.24193
 kpt#  19, nband=  5, wtk=  0.02344, kpt= -0.1250 -0.3125  0.1250 (reduced coord)
  -0.25736  -0.02162   0.05126   0.09378   0.27009
 kpt#  20, nband=  5, wtk=  0.02344, kpt= -0.0625 -0.3125  0.1875 (reduced coord)
  -0.25087  -0.03371   0.03490   0.09838   0.26758
 kpt#  21, nband=  5, wtk=  0.01172, kpt= -0.0625  0.3750  0.0000 (reduced coord)
  -0.25553  -0.05110   0.09478   0.11010   0.22640
 kpt#  22, nband=  5, wtk=  0.01172, kpt= -0.1250  0.4375  0.0000 (reduced coord)
  -0.24564  -0.06350   0.07008   0.09998   0.24220
 kpt#  23, nband=  5, wtk=  0.01172, kpt= -0.1875  0.5000  0.0000 (reduced coord)
  -0.24388  -0.05485   0.05171   0.08716   0.24057
 kpt#  24, nband=  5, wtk=  0.02344, kpt= -0.1250  0.5000  0.0625 (reduced coord)
  -0.24317  -0.06073   0.05620   0.09099   0.25227
 kpt#  25, nband=  5, wtk=  0.01172, kpt= -0.2500 -0.4375  0.0000 (reduced coord)
  -0.24744  -0.03670   0.04943   0.07623   0.22692
 kpt#  26, nband=  5, wtk=  0.02344, kpt= -0.1875 -0.4375  0.0625 (reduced coord)
  -0.24485  -0.04523   0.04492   0.07928   0.24290
 kpt#  27, nband=  5, wtk=  0.02344, kpt= -0.1250 -0.4375  0.1250 (reduced coord)
  -0.24178  -0.05237   0.03873   0.08183   0.26913
 kpt#  28, nband=  5, wtk=  0.02344, kpt= -0.0625 -0.4375  0.1875 (reduced coord)
  -0.23894  -0.05568   0.03141   0.08414   0.25038
 kpt#  29, nband=  5, wtk=  0.01172, kpt= -0.3125 -0.3750  0.0000 (reduced coord)
  -0.25076  -0.02695   0.06508   0.07013   0.20980
 kpt#  30, nband=  5, wtk=  0.02344, kpt= -0.2500 -0.3750  0.0625 (reduced coord)
  -0.24891  -0.03072   0.05395   0.07088   0.22666
 kpt#  31, nband=  5, wtk=  0.02344, kpt= -0.1875 -0.3750  0.1250 (reduced coord)
  -0.24552  -0.03691   0.03884   0.07274   0.25690
 kpt#  32, nband=  5, wtk=  0.02344, kpt= -0.1250 -0.3750  0.1875 (reduced coord)
  -0.24122  -0.04335   0.02413   0.07695   0.27798
 kpt#  33, nband=  5, wtk=  0.02344, kpt= -0.0625 -0.3750  0.2500 (reduced coord)
  -0.23678  -0.04828   0.01330   0.08072   0.24660
 kpt#  34, nband=  5, wtk=  0.01172, kpt= -0.0625  0.2500  0.0000 (reduced coord)
  -0.27506   0.00054   0.10185   0.12148   0.23785
 kpt#  35, nband=  5, wtk=  0.01172, kpt= -0.1250  0.3125  0.0000 (reduced coord)
  -0.25868  -0.03506   0.07039   0.11167   0.25020
 kpt#  36, nband=  5, wtk=  0.01172, kpt= -0.1875  0.3750  0.0000 (reduced coord)
  -0.24419  -0.05390   0.04225   0.09682   0.24937
 kpt#  37, nband=  5, wtk=  0.01172, kpt= -0.2500  0.4375  0.0000 (reduced coord)
  -0.23687  -0.05472   0.02602   0.08127   0.23196
 kpt#  38, nband=  5, wtk=  0.01172, kpt= -0.3125  0.5000  0.0000 (reduced coord)
  -0.23642  -0.04923   0.03225   0.06900   0.21491
 kpt#  39, nband=  5, wtk=  0.02344, kpt= -0.2500  0.5000  0.0625 (reduced coord)
  -0.23568  -0.05116   0.02541   0.06990   0.23228
 kpt#  40, nband=  5, wtk=  0.02344, kpt= -0.1875  0.5000  0.1250 (reduced coord)
  -0.23515  -0.05278   0.02317   0.06727   0.26437
 kpt#  41, nband=  5, wtk=  0.01172, kpt= -0.3750 -0.4375  0.0000 (reduced coord)
  -0.23794  -0.04835   0.05603   0.06236   0.19849
 kpt#  42, nband=  5, wtk=  0.02344, kpt= -0.3125 -0.4375  0.0625 (reduced coord)
  -0.23693  -0.04814   0.04375   0.06035   0.21522
 kpt#  43, nband=  5, wtk=  0.02344, kpt= -0.2500 -0.4375  0.1250 (reduced coord)
  -0.23520  -0.04814   0.03007   0.05594   0.24630
 kpt#  44, nband=  5, wtk=  0.02344, kpt= -0.1875 -0.4375  0.1875 (reduced coord)
  -0.23323  -0.04880   0.01834   0.05544   0.28159
 kpt#  45, nband=  5, wtk=  0.02344, kpt= -0.1250 -0.4375  0.2500 (reduced coord)
  -0.23150  -0.05046   0.01189   0.05978   0.25985
 kpt#  46, nband=  5, wtk=  0.02344, kpt= -0.0625 -0.4375  0.3125 (reduced coord)
  -0.23033  -0.05323   0.01339   0.06533   0.22640
 kpt#  47, nband=  5, wtk=  0.01172, kpt= -0.0625  0.1250  0.0000 (reduced coord)
  -0.29175   0.06815   0.11633   0.13281   0.24724
 kpt#  48, nband=  5, wtk=  0.01172, kpt= -0.1250  0.1875  0.0000 (reduced coord)
  -0.27804   0.01853   0.08398   0.12568   0.26236
 kpt#  49, nband=  5, wtk=  0.01172, kpt= -0.1875  0.2500  0.0000 (reduced coord)
  -0.26046  -0.01994   0.04960   0.11233   0.26582
 kpt#  50, nband=  5, wtk=  0.01172, kpt= -0.2500  0.3125  0.0000 (reduced coord)
  -0.24362  -0.04289   0.02155   0.09505   0.24854
 prteigrs : prtvol=0 or 1, do not print more k-points.

 Total charge density [el/Bohr^3]
,     Maximum=    1.0138E-01  at reduced coord.    0.1875    0.1875    0.4688
,Next maximum=    1.0138E-01  at reduced coord.    0.1563    0.1875    0.4688
,     Minimum=    2.6532E-03  at reduced coord.    0.7500    0.7500    0.7500
,Next minimum=    2.7121E-03  at reduced coord.    0.7500    0.7500    0.7188
,  Integrated=    8.0000E+00

--------------------------------------------------------------------------------
 Components of total free energy (in Hartree) :

    Kinetic energy  =  3.03265532152327E+00
    Hartree energy  =  8.20439868126668E-01
    XC energy       = -2.38466583595654E+00
    Ewald energy    = -8.41179281877682E+00
    PspCore energy  =  2.66196387778207E-01
    Loc. psp. energy= -2.68490183972208E+00
    NL   psp  energy=  8.39207227372903E-01
    >>>>>>>>> Etotal= -8.52286168965439E+00

 Other information on the energy :
    Total energy(eV)= -2.31918861022874E+02 ; Band energy (Ha)=  -2.8299256642E-01
--------------------------------------------------------------------------------

 Cartesian components of stress tensor (hartree/bohr^3)
  sigma(1 1)=  5.57745891E-05  sigma(3 2)=  0.00000000E+00
  sigma(2 2)=  5.57745891E-05  sigma(3 1)=  0.00000000E+00
  sigma(3 3)=  5.57745891E-05  sigma(2 1)=  0.00000000E+00

-Cartesian components of stress tensor (GPa)         [Pressure= -1.6409E+00 GPa]
- sigma(1 1)=  1.64094479E+00  sigma(3 2)=  0.00000000E+00
- sigma(2 2)=  1.64094479E+00  sigma(3 1)=  0.00000000E+00
- sigma(3 3)=  1.64094479E+00  sigma(2 1)=  0.00000000E+00

================================================================================
== DATASET  2 ==================================================================
-   nproc =    1

 mkfilename : getden/=0, take file _DEN from output of DATASET   1.

 Exchange-correlation functional for the present dataset will be:
  LDA: Perdew-Wang 92 LSD fit to Ceperley-Alder data - ixc=7
 Citation for XC functional:
  J.P.Perdew and Y.Wang, PRB 45, 13244 (1992)

 Real(R)+Recip(G) space primitive vectors, cartesian coordinates (Bohr,Bohr^-1):
 R(1)= -5.3479500  0.0000000  5.3479500  G(1)= -0.0934938 -0.0934938  0.0934938
 R(2)=  0.0000000  5.3479500  5.3479500  G(2)=  0.0934938  0.0934938  0.0934938
 R(3)= -5.3479500  5.3479500  0.0000000  G(3)= -0.0934938  0.0934938 -0.0934938
 Unit cell volume ucvol=  3.0590883E+02 bohr^3
 Angles (23,13,12)=  6.00000000E+01  6.00000000E+01  6.00000000E+01 degrees

 getcut: wavevector=  0.0000  0.0000  0.0000  ngfft=  32  32  32
         ecut(hartree)=     20.000   => boxcut(ratio)=   2.10168
--------------------------------------------------------------------------------

P newkpt: treating     15 bands with npw=    1291 for ikpt=   1 by node    0
P newkpt: treating     15 bands with npw=    1309 for ikpt=   2 by node    0
P newkpt: treating     15 bands with npw=    1323 for ikpt=   3 by node    0
P newkpt: treating     15 bands with npw=    1302 for ikpt=   4 by node    0
P newkpt: treating     15 bands with npw=    1308 for ikpt=   5 by node    0
P newkpt: treating     15 bands with npw=    1307 for ikpt=   6 by node    0
P newkpt: treating     15 bands with npw=    1322 for ikpt=   7 by node    0
P newkpt: treating     15 bands with npw=    1306 for ikpt=   8 by node    0
P newkpt: treating     15 bands with npw=    1305 for ikpt=   9 by node    0
P newkpt: treating     15 bands with npw=    1306 for ikpt=  10 by node    0
P newkpt: treating     15 bands with npw=    1314 for ikpt=  11 by node    0
P newkpt: treating     15 bands with npw=    1311 for ikpt=  12 by node    0
P newkpt: treating     15 bands with npw=    1299 for ikpt=  13 by node    0
P newkpt: treating     15 bands with npw=    1303 for ikpt=  14 by node    0
P newkpt: treating     15 bands with npw=    1301 for ikpt=  15 by node    0
P newkpt: treating     15 bands with npw=    1303 for ikpt=  16 by node    0
P newkpt: treating     15 bands with npw=    1312 for ikpt=  17 by node    0
P newkpt: treating     15 bands with npw=    1299 for ikpt=  18 by node    0
P newkpt: treating     15 bands with npw=    1305 for ikpt=  19 by node    0
P newkpt: treating     15 bands with npw=    1296 for ikpt=  20 by node    0
P newkpt: treating     15 bands with npw=    1298 for ikpt=  21 by node    0
P newkpt: treating     15 bands with npw=    1315 for ikpt=  22 by node    0
P newkpt: treating     15 bands with npw=    1305 for ikpt=  23 by node    0
P newkpt: treating     15 bands with npw=    1316 for ikpt=  24 by node    0
P newkpt: treating     15 bands with npw=    1314 for ikpt=  25 by node    0
P newkpt: treating     15 bands with npw=    1298 for ikpt=  26 by node    0
P newkpt: treating     15 bands with npw=    1306 for ikpt=  27 by node    0
P newkpt: treating     15 bands with npw=    1298 for ikpt=  28 by node    0
P newkpt: treating     15 bands with npw=    1316 for ikpt=  29 by node    0


================================================================================
 prteigrs : about to open file alas-o_DS2_EIG
 Non-SCF case, kpt    1 (  0.00000  0.00000  0.00000), residuals and eigenvalues=
  5.95E-11  3.16E-11  6.53E-11  1.61E-11  6.45E-11  2.60E-11  5.67E-11  1.53E-11
  3.14E-11  4.08E-11  5.74E-11  2.06E-11  3.27E-11  5.50E-11  1.09E-09
 -3.0052E-01  1.3685E-01  1.3685E-01  1.3685E-01  2.0894E-01  2.9294E-01
  2.9294E-01  2.9294E-01  4.5078E-01  4.7031E-01  4.7031E-01  5.5409E-01
  5.5409E-01  5.5409E-01  6.7542E-01
  prteigrs : nnsclo,ikpt=  100    1 max resid (incl. the buffer)=  1.08766E-09
 Non-SCF case, kpt    2 (  0.12500  0.00000  0.00000), residuals and eigenvalues=
  9.59E-11  3.10E-11  2.19E-11  4.58E-11  8.88E-11  4.01E-11  7.83E-11  1.78E-11
  2.48E-11  8.73E-11  8.50E-11  8.08E-11  1.52E-11  6.80E-11  1.90E-09
 -2.9494E-01  8.3647E-02  1.3091E-01  1.3091E-01  2.3695E-01  3.0333E-01
  3.0333E-01  3.0712E-01  4.4682E-01  4.4682E-01  4.7853E-01  5.3280E-01
  6.0227E-01  6.0227E-01  7.2365E-01
  prteigrs : nnsclo,ikpt=  100    2 max resid (incl. the buffer)=  1.89647E-09
 Non-SCF case, kpt    3 (  0.25000  0.00000  0.00000), residuals and eigenvalues=
  1.83E-11  9.13E-11  3.46E-11  6.63E-11  7.66E-11  1.26E-11  2.95E-11  7.45E-11
  3.67E-11  8.32E-11  7.10E-11  2.96E-11  7.33E-11  6.40E-11  6.98E-06
 -2.7945E-01  1.1558E-02  1.1923E-01  1.1923E-01  2.2986E-01  3.1601E-01
  3.1601E-01  3.7111E-01  4.4229E-01  4.4229E-01  4.7554E-01  5.8322E-01
  6.8904E-01  6.8904E-01  8.0420E-01
  prteigrs : nnsclo,ikpt=  100    3 max resid (incl. the buffer)=  6.97769E-06
 Non-SCF case, kpt    4 (  0.37500  0.00000  0.00000), residuals and eigenvalues=
  8.59E-11  4.69E-11  3.38E-11  9.82E-11  7.77E-11  3.42E-11  5.76E-11  3.86E-11
  4.44E-11  2.77E-11  8.95E-11  6.75E-11  9.65E-11  3.32E-10  1.06E-05
 -2.5944E-01 -4.5227E-02  1.0993E-01  1.0993E-01  2.1689E-01  3.1196E-01
  3.1196E-01  4.1618E-01  4.8882E-01  4.8969E-01  4.8969E-01  6.5299E-01
  6.7053E-01  6.7053E-01  7.5901E-01
  prteigrs : nnsclo,ikpt=  100    4 max resid (incl. the buffer)=  1.05934E-05
 Non-SCF case, kpt    5 (  0.50000  0.00000  0.00000), residuals and eigenvalues=
  4.89E-11  6.62E-11  7.07E-11  8.45E-11  9.17E-11  1.79E-11  2.58E-11  9.55E-11
  2.95E-11  2.72E-11  7.09E-11  6.25E-11  5.51E-11  7.41E-11  2.60E-04
 -2.4877E-01 -6.8483E-02  1.0655E-01  1.0655E-01  2.1203E-01  3.0771E-01
  3.0771E-01  4.1669E-01  5.4135E-01  5.6040E-01  5.6040E-01  5.8247E-01
  5.8247E-01  6.1346E-01  8.5221E-01
  prteigrs : nnsclo,ikpt=  100    5 max resid (incl. the buffer)=  2.59668E-04
 Non-SCF case, kpt    6 (  0.12500  0.12500  0.00000), residuals and eigenvalues=
  2.19E-11  6.44E-11  1.68E-11  6.03E-11  9.80E-11  4.34E-11  6.27E-11  6.01E-11
  6.02E-11  9.85E-11  7.13E-11  2.37E-11  6.34E-11  3.22E-11  2.56E-08
 -2.9306E-01  8.5190E-02  1.1847E-01  1.1847E-01  2.6188E-01  2.6845E-01
  3.2266E-01  3.2266E-01  4.0759E-01  4.8039E-01  4.9194E-01  5.7195E-01
  5.7195E-01  5.9307E-01  7.4869E-01
  prteigrs : nnsclo,ikpt=  100    6 max resid (incl. the buffer)=  2.55775E-08
 Non-SCF case, kpt    7 (  0.25000  0.12500  0.00000), residuals and eigenvalues=
  7.11E-11  9.36E-11  6.22E-11  5.29E-11  6.96E-11  9.19E-11  5.49E-11  5.42E-11
  2.14E-11  3.16E-11  6.17E-11  7.32E-11  6.85E-11  1.29E-10  7.72E-04
 -2.8079E-01  3.0117E-02  1.0431E-01  1.0549E-01  2.5714E-01  2.8704E-01
  3.4228E-01  3.4517E-01  4.1338E-01  4.8103E-01  5.2173E-01  5.7209E-01
  6.2974E-01  6.7486E-01  7.9990E-01
  prteigrs : nnsclo,ikpt=  100    7 max resid (incl. the buffer)=  7.72079E-04
 Non-SCF case, kpt    8 (  0.37500  0.12500  0.00000), residuals and eigenvalues=
  6.15E-11  1.84E-11  5.29E-11  7.42E-11  7.33E-11  9.17E-11  7.08E-11  7.40E-11
  5.10E-11  6.96E-11  1.41E-11  7.78E-11  7.08E-11  4.60E-08  2.63E-07
 -2.6177E-01 -2.7542E-02  8.7897E-02  9.6177E-02  2.4649E-01  3.0229E-01
  3.4380E-01  3.6291E-01  4.7086E-01  5.1718E-01  5.1729E-01  6.3655E-01
  6.5881E-01  7.1688E-01  7.4861E-01
  prteigrs : nnsclo,ikpt=  100    8 max resid (incl. the buffer)=  2.63237E-07
 Non-SCF case, kpt    9 (  0.50000  0.12500  0.00000), residuals and eigenvalues=
  6.62E-11  9.30E-12  1.16E-11  8.18E-11  1.02E-11  2.00E-11  7.86E-11  5.83E-11
  2.23E-11  4.00E-11  8.65E-11  2.75E-11  2.87E-11  2.37E-08  1.25E-04
 -2.4655E-01 -6.1703E-02  7.3937E-02  9.6602E-02  2.4137E-01  2.9918E-01
  3.3137E-01  4.2149E-01  4.8129E-01  5.5594E-01  5.5959E-01  5.9697E-01
  6.0777E-01  7.0272E-01  8.1439E-01
  prteigrs : nnsclo,ikpt=  100    9 max resid (incl. the buffer)=  1.24770E-04
 Non-SCF case, kpt   10 ( -0.37500  0.12500  0.00000), residuals and eigenvalues=
  6.64E-11  6.01E-11  8.87E-11  6.91E-11  7.37E-11  4.63E-11  5.51E-11  1.61E-11
  6.33E-11  4.54E-11  8.22E-11  3.72E-11  4.37E-11  2.04E-11  3.19E-07
 -2.5026E-01 -5.3958E-02  6.8793E-02  1.0515E-01  2.4524E-01  3.0444E-01
  3.2439E-01  4.2603E-01  4.7246E-01  4.9595E-01  5.5563E-01  6.1355E-01
  6.8104E-01  6.8968E-01  7.6186E-01
  prteigrs : nnsclo,ikpt=  100   10 max resid (incl. the buffer)=  3.19144E-07
 Non-SCF case, kpt   11 ( -0.25000  0.12500  0.00000), residuals and eigenvalues=
  8.00E-11  7.16E-11  8.26E-11  7.21E-11  4.55E-11  2.43E-11  1.10E-11  1.47E-11
  1.38E-11  4.51E-11  8.29E-11  8.76E-11  5.26E-11  8.60E-11  2.29E-05
 -2.6855E-01 -9.8156E-03  7.5230E-02  1.1885E-01  2.5647E-01  3.1501E-01
  3.2086E-01  3.7132E-01  4.1639E-01  4.9392E-01  5.3637E-01  6.0664E-01
  6.7406E-01  6.9909E-01  7.6281E-01
  prteigrs : nnsclo,ikpt=  100   11 max resid (incl. the buffer)=  2.28735E-05
 Non-SCF case, kpt   12 ( -0.12500  0.12500  0.00000), residuals and eigenvalues=
  2.12E-11  3.93E-11  9.55E-11  2.32E-11  5.87E-11  2.81E-11  5.00E-11  3.21E-11
  5.65E-11  6.24E-11  1.34E-11  5.02E-11  8.71E-11  8.83E-09  5.47E-05
 -2.8599E-01  4.5976E-02  9.7785E-02  1.3081E-01  2.6127E-01  2.9770E-01
  3.0751E-01  3.4585E-01  4.1201E-01  4.5682E-01  5.1817E-01  5.5841E-01
  5.9739E-01  6.8050E-01  7.8243E-01
  prteigrs : nnsclo,ikpt=  100   12 max resid (incl. the buffer)=  5.46914E-05
 Non-SCF case, kpt   13 (  0.25000  0.25000  0.00000), residuals and eigenvalues=
  8.32E-11  5.70E-11  1.43E-11  5.96E-11  9.35E-11  5.87E-11  1.63E-11  7.25E-11
  1.75E-11  9.59E-11  2.28E-11  7.10E-11  2.00E-11  6.67E-11  7.92E-06
 -2.7217E-01  1.7790E-02  8.7478E-02  8.7478E-02  2.2877E-01  2.7289E-01
  3.8632E-01  3.8632E-01  4.0927E-01  5.1055E-01  5.7598E-01  6.2462E-01
  6.2462E-01  6.4442E-01  7.8630E-01
  prteigrs : nnsclo,ikpt=  100   13 max resid (incl. the buffer)=  7.91717E-06
 Non-SCF case, kpt   14 (  0.37500  0.25000  0.00000), residuals and eigenvalues=
  1.86E-11  6.88E-11  1.36E-11  7.57E-11  7.18E-11  4.42E-11  1.99E-11  8.19E-11
  1.77E-11  3.45E-11  8.10E-11  2.73E-11  8.19E-11  4.94E-07  1.00E-07
 -2.5613E-01 -1.9468E-02  6.4469E-02  7.7540E-02  2.2653E-01  2.7242E-01
  3.7926E-01  4.0290E-01  4.8942E-01  5.4327E-01  5.8751E-01  6.4483E-01
  6.5511E-01  7.0712E-01  7.1827E-01
  prteigrs : nnsclo,ikpt=  100   14 max resid (incl. the buffer)=  4.93509E-07
 Non-SCF case, kpt   15 (  0.50000  0.25000  0.00000), residuals and eigenvalues=
  8.09E-11  4.83E-11  2.56E-11  3.36E-11  4.95E-11  1.36E-11  1.60E-11  9.45E-11
  1.66E-11  9.66E-11  4.85E-11  6.21E-11  3.41E-11  1.01E-05  9.01E-04
 -2.4037E-01 -4.9245E-02  3.6019E-02  7.7504E-02  2.2810E-01  3.2406E-01
  3.6908E-01  3.9065E-01  5.1361E-01  5.5677E-01  6.0764E-01  6.1868E-01
  6.2071E-01  7.6522E-01  8.0536E-01
  prteigrs : nnsclo,ikpt=  100   15 max resid (incl. the buffer)=  9.00800E-04
 Non-SCF case, kpt   16 ( -0.37500  0.25000  0.00000), residuals and eigenvalues=
  6.49E-11  4.08E-11  9.05E-11  4.37E-11  6.20E-11  9.81E-12  1.19E-11  7.30E-11
  2.30E-11  2.79E-11  5.52E-11  4.65E-11  5.64E-11  1.56E-09  4.93E-08
 -2.3811E-01 -5.2084E-02  2.0676E-02  8.7273E-02  2.3891E-01  3.5058E-01
  3.7483E-01  4.1078E-01  4.4966E-01  4.7017E-01  5.9776E-01  6.8622E-01
  7.1264E-01  7.3723E-01  7.5455E-01
  prteigrs : nnsclo,ikpt=  100   16 max resid (incl. the buffer)=  4.93041E-08
 Non-SCF case, kpt   17 ( -0.25000  0.25000  0.00000), residuals and eigenvalues=
  4.90E-11  3.75E-11  2.27E-11  5.59E-11  9.83E-12  9.09E-11  1.53E-11  8.28E-11
  3.05E-11  2.31E-11  8.93E-11  2.37E-11  8.94E-11  1.78E-05  1.07E-04
 -2.5169E-01 -3.1033E-02  3.0838E-02  1.0381E-01  2.5926E-01  3.4622E-01
  3.5274E-01  3.6582E-01  4.1756E-01  5.1159E-01  5.9419E-01  6.3480E-01
  6.4812E-01  7.4630E-01  7.9980E-01
  prteigrs : nnsclo,ikpt=  100   17 max resid (incl. the buffer)=  1.07411E-04
 Non-SCF case, kpt   18 (  0.37500  0.37500  0.00000), residuals and eigenvalues=
  6.48E-11  5.54E-11  6.75E-11  7.69E-11  3.47E-11  8.09E-11  1.37E-11  6.13E-11
  1.51E-11  5.45E-11  3.64E-11  3.09E-11  5.79E-11  1.03E-04  2.55E-04
 -2.4439E-01 -3.8146E-02  6.4957E-02  6.4957E-02  1.9862E-01  2.3227E-01
  4.6000E-01  4.6000E-01  4.9833E-01  5.6032E-01  6.4448E-01  6.5538E-01
  6.5538E-01  7.2525E-01  7.2648E-01
  prteigrs : nnsclo,ikpt=  100   18 max resid (incl. the buffer)=  2.54778E-04
 Non-SCF case, kpt   19 (  0.50000  0.37500  0.00000), residuals and eigenvalues=
  3.16E-11  5.90E-11  4.92E-11  8.29E-11  3.98E-11  5.56E-11  1.72E-11  3.48E-11
  1.73E-11  7.18E-11  3.13E-11  7.93E-11  5.41E-11  4.25E-10  5.87E-10
 -2.3264E-01 -5.4800E-02  3.9952E-02  6.2471E-02  2.0313E-01  2.4774E-01
  4.5773E-01  4.6650E-01  5.3492E-01  5.6882E-01  6.1415E-01  6.3063E-01
  6.9270E-01  7.2067E-01  7.2150E-01
  prteigrs : nnsclo,ikpt=  100   19 max resid (incl. the buffer)=  5.87458E-10
 Non-SCF case, kpt   20 ( -0.37500  0.37500  0.00000), residuals and eigenvalues=
  7.40E-11  7.56E-11  6.33E-11  4.45E-11  4.80E-11  3.14E-11  7.62E-11  1.05E-11
  2.71E-11  4.23E-11  9.30E-11  8.51E-11  3.60E-11  2.06E-10  1.54E-08
 -2.2989E-01 -5.3837E-02  1.0881E-02  7.0645E-02  2.1610E-01  3.1675E-01
  4.3590E-01  4.4101E-01  4.5430E-01  4.9463E-01  6.7108E-01  7.0135E-01
  7.1751E-01  7.3197E-01  7.3903E-01
  prteigrs : nnsclo,ikpt=  100   20 max resid (incl. the buffer)=  1.54240E-08
 Non-SCF case, kpt   21 (  0.50000  0.50000  0.00000), residuals and eigenvalues=
  5.04E-11  5.36E-11  3.96E-11  7.17E-11  4.26E-11  6.95E-11  1.17E-11  2.51E-11
  8.34E-11  2.79E-11  7.80E-11  6.73E-11  8.07E-11  4.28E-11  9.05E-04
 -2.2880E-01 -6.3194E-02  5.7015E-02  5.7015E-02  1.8676E-01  2.1734E-01
  5.1390E-01  5.1390E-01  5.6538E-01  5.9884E-01  5.9884E-01  6.1592E-01
  6.2859E-01  6.4962E-01  8.3101E-01
  prteigrs : nnsclo,ikpt=  100   21 max resid (incl. the buffer)=  9.05281E-04
 Non-SCF case, kpt   22 (  0.37500  0.25000  0.12500), residuals and eigenvalues=
  6.48E-11  4.95E-11  6.54E-11  7.84E-11  5.84E-11  8.54E-11  7.89E-11  4.35E-11
  1.74E-11  9.45E-12  5.26E-11  1.98E-11  3.64E-11  4.16E-10  7.04E-07
 -2.6649E-01 -2.3692E-03  6.4685E-02  1.0087E-01  2.6636E-01  2.9179E-01
  3.2946E-01  3.7501E-01  4.3695E-01  5.1962E-01  5.7267E-01  5.9177E-01
  6.6717E-01  6.8665E-01  7.4286E-01
  prteigrs : nnsclo,ikpt=  100   22 max resid (incl. the buffer)=  7.03999E-07
 Non-SCF case, kpt   23 (  0.50000  0.25000  0.12500), residuals and eigenvalues=
  5.95E-11  4.35E-11  4.03E-11  1.87E-11  5.62E-11  1.95E-11  2.08E-11  9.03E-11
  6.13E-11  2.10E-11  9.60E-11  2.89E-11  8.11E-11  1.25E-09  2.42E-05
 -2.4850E-01 -3.9512E-02  4.3017E-02  8.6787E-02  2.6956E-01  2.9865E-01
  3.4703E-01  3.8774E-01  4.7910E-01  5.2179E-01  5.8144E-01  6.2956E-01
  6.7364E-01  7.0661E-01  7.7444E-01
  prteigrs : nnsclo,ikpt=  100   23 max resid (incl. the buffer)=  2.41647E-05
 Non-SCF case, kpt   24 ( -0.37500  0.25000  0.12500), residuals and eigenvalues=
  5.51E-11  5.71E-11  5.25E-11  9.36E-11  5.22E-11  8.02E-11  1.65E-11  2.11E-11
  2.13E-11  2.47E-11  1.09E-11  1.71E-11  7.81E-11  1.38E-09  1.49E-05
 -2.3922E-01 -5.7078E-02  3.7414E-02  8.0049E-02  2.6913E-01  2.9055E-01
  3.8086E-01  4.1538E-01  4.4170E-01  5.4011E-01  5.8410E-01  6.0373E-01
  7.1074E-01  7.3351E-01  8.0299E-01
  prteigrs : nnsclo,ikpt=  100   24 max resid (incl. the buffer)=  1.48611E-05
 Non-SCF case, kpt   25 (  0.50000  0.37500  0.12500), residuals and eigenvalues=
  5.43E-11  1.26E-11  5.56E-11  6.91E-11  1.28E-11  9.95E-11  3.37E-11  1.27E-11
  4.74E-11  4.30E-11  2.86E-11  6.65E-11  6.00E-11  2.20E-09  1.58E-06
 -2.4149E-01 -4.0812E-02  4.2593E-02  6.1719E-02  2.3755E-01  2.7011E-01
  3.7341E-01  4.5782E-01  5.0591E-01  5.4659E-01  6.2671E-01  6.4976E-01
  6.6964E-01  6.8870E-01  7.3975E-01
  prteigrs : nnsclo,ikpt=  100   25 max resid (incl. the buffer)=  1.57521E-06
 Non-SCF case, kpt   26 ( -0.37500  0.37500  0.12500), residuals and eigenvalues=
  7.77E-11  6.80E-11  5.54E-11  7.29E-11  7.59E-11  7.71E-11  3.84E-11  2.37E-11
  4.16E-11  3.20E-11  4.68E-11  3.46E-11  3.07E-11  6.31E-10  1.81E-04
 -2.3153E-01 -5.1406E-02  1.8569E-02  5.5636E-02  2.5242E-01  3.2184E-01
  3.5798E-01  4.3320E-01  4.7032E-01  5.6200E-01  6.1113E-01  6.6033E-01
  7.1626E-01  7.3780E-01  7.8866E-01
  prteigrs : nnsclo,ikpt=  100   26 max resid (incl. the buffer)=  1.80680E-04
 Non-SCF case, kpt   27 ( -0.25000  0.37500  0.12500), residuals and eigenvalues=
  6.22E-11  6.61E-11  5.17E-11  7.81E-11  1.43E-11  2.45E-11  5.80E-11  5.85E-11
  4.39E-11  1.78E-11  1.79E-11  3.93E-11  2.95E-11  5.98E-08  3.94E-07
 -2.3508E-01 -4.7042E-02  1.3216E-02  6.7300E-02  2.6915E-01  3.2899E-01
  3.5578E-01  4.2090E-01  4.5009E-01  5.0178E-01  6.5454E-01  6.6292E-01
  6.9270E-01  7.4623E-01  7.5912E-01
  prteigrs : nnsclo,ikpt=  100   27 max resid (incl. the buffer)=  3.93998E-07
 Non-SCF case, kpt   28 ( -0.37500  0.50000  0.12500), residuals and eigenvalues=
  6.32E-11  9.00E-11  6.13E-11  1.63E-11  6.70E-11  1.20E-11  3.20E-11  2.15E-11
  2.72E-11  3.86E-11  6.10E-11  1.73E-11  2.25E-11  2.34E-08  1.69E-07
 -2.2821E-01 -5.7761E-02  3.7582E-02  4.3199E-02  2.2624E-01  2.5834E-01
  4.3408E-01  4.5901E-01  5.2390E-01  5.8801E-01  5.9634E-01  6.4470E-01
  7.1661E-01  7.3672E-01  7.6733E-01
  prteigrs : nnsclo,ikpt=  100   28 max resid (incl. the buffer)=  1.69013E-07
 Non-SCF case, kpt   29 ( -0.25000  0.50000  0.25000), residuals and eigenvalues=
  8.83E-11  1.17E-11  1.43E-11  8.23E-11  8.95E-11  2.33E-11  7.65E-11  2.10E-11
  4.02E-11  6.40E-11  3.30E-11  7.05E-11  8.05E-11  8.79E-09  4.81E-05
 -2.2762E-01 -5.0685E-02  1.9658E-02  3.2537E-02  2.9357E-01  3.4121E-01
  3.4536E-01  3.5610E-01  5.2458E-01  5.8761E-01  5.9843E-01  6.5134E-01
  7.3155E-01  7.5873E-01  7.8991E-01
  prteigrs : nnsclo,ikpt=  100   29 max resid (incl. the buffer)=  4.81437E-05

======================================================================
 Calculating and writing out Kohn-Sham electronic Structure file
 Using conjugate gradient wavefunctions and energies (kssform=3)
 number of Gamma centered plane waves   1807
 number of Gamma centered shells    121
 number of bands     13
 maximum angular momentum components      4
 Conjugate gradient eigenvalues
   k    eigenvalues [Hartree]
   1     -0.3005  0.1368  0.1368  0.1368  0.2089  0.2929  0.2929  0.2929  0.4508
          0.4703  0.4703  0.5541  0.5541
   2     -0.2949  0.0836  0.1309  0.1309  0.2370  0.3033  0.3033  0.3071  0.4468
          0.4468  0.4785  0.5328  0.6023
   3     -0.2794  0.0116  0.1192  0.1192  0.2299  0.3160  0.3160  0.3711  0.4423
          0.4423  0.4755  0.5832  0.6890
   4     -0.2594 -0.0452  0.1099  0.1099  0.2169  0.3120  0.3120  0.4162  0.4888
          0.4897  0.4897  0.6530  0.6705
   5     -0.2488 -0.0685  0.1065  0.1065  0.2120  0.3077  0.3077  0.4167  0.5414
          0.5604  0.5604  0.5825  0.5825
   6     -0.2931  0.0852  0.1185  0.1185  0.2619  0.2684  0.3227  0.3227  0.4076
          0.4804  0.4919  0.5720  0.5720
   7     -0.2808  0.0301  0.1043  0.1055  0.2571  0.2870  0.3423  0.3452  0.4134
          0.4810  0.5217  0.5721  0.6297
   8     -0.2618 -0.0275  0.0879  0.0962  0.2465  0.3023  0.3438  0.3629  0.4709
          0.5172  0.5173  0.6366  0.6588
   9     -0.2466 -0.0617  0.0739  0.0966  0.2414  0.2992  0.3314  0.4215  0.4813
          0.5559  0.5596  0.5970  0.6078
  10     -0.2503 -0.0540  0.0688  0.1052  0.2452  0.3044  0.3244  0.4260  0.4725
          0.4960  0.5556  0.6135  0.6810
  11     -0.2686 -0.0098  0.0752  0.1188  0.2565  0.3150  0.3209  0.3713  0.4164
          0.4939  0.5364  0.6066  0.6741
  12     -0.2860  0.0460  0.0978  0.1308  0.2613  0.2977  0.3075  0.3459  0.4120
          0.4568  0.5182  0.5584  0.5974
  13     -0.2722  0.0178  0.0875  0.0875  0.2288  0.2729  0.3863  0.3863  0.4093
          0.5106  0.5760  0.6246  0.6246
  14     -0.2561 -0.0195  0.0645  0.0775  0.2265  0.2724  0.3793  0.4029  0.4894
          0.5433  0.5875  0.6448  0.6551
  15     -0.2404 -0.0492  0.0360  0.0775  0.2281  0.3241  0.3691  0.3907  0.5136
          0.5568  0.6076  0.6187  0.6207
  16     -0.2381 -0.0521  0.0207  0.0873  0.2389  0.3506  0.3748  0.4108  0.4497
          0.4702  0.5978  0.6862  0.7126
  17     -0.2517 -0.0310  0.0308  0.1038  0.2593  0.3462  0.3527  0.3658  0.4176
          0.5116  0.5942  0.6348  0.6481
  18     -0.2444 -0.0381  0.0650  0.0650  0.1986  0.2323  0.4600  0.4600  0.4983
          0.5603  0.6445  0.6554  0.6554
  19     -0.2326 -0.0548  0.0400  0.0625  0.2031  0.2477  0.4577  0.4665  0.5349
          0.5688  0.6142  0.6306  0.6927
  20     -0.2299 -0.0538  0.0109  0.0706  0.2161  0.3167  0.4359  0.4410  0.4543
          0.4946  0.6711  0.7014  0.7175
  21     -0.2288 -0.0632  0.0570  0.0570  0.1868  0.2173  0.5139  0.5139  0.5654
          0.5988  0.5988  0.6159  0.6286
  22     -0.2665 -0.0024  0.0647  0.1009  0.2664  0.2918  0.3295  0.3750  0.4370
          0.5196  0.5727  0.5918  0.6672
  23     -0.2485 -0.0395  0.0430  0.0868  0.2696  0.2986  0.3470  0.3877  0.4791
          0.5218  0.5814  0.6296  0.6736
  24     -0.2392 -0.0571  0.0374  0.0800  0.2691  0.2905  0.3809  0.4154  0.4417
          0.5401  0.5841  0.6037  0.7107
  25     -0.2415 -0.0408  0.0426  0.0617  0.2376  0.2701  0.3734  0.4578  0.5059
          0.5466  0.6267  0.6498  0.6696
  26     -0.2315 -0.0514  0.0186  0.0556  0.2524  0.3218  0.3580  0.4332  0.4703
          0.5620  0.6111  0.6603  0.7163
  27     -0.2351 -0.0470  0.0132  0.0673  0.2692  0.3290  0.3558  0.4209  0.4501
          0.5018  0.6545  0.6629  0.6927
  28     -0.2282 -0.0578  0.0376  0.0432  0.2262  0.2583  0.4341  0.4590  0.5239
          0.5880  0.5963  0.6447  0.7166
  29     -0.2276 -0.0507  0.0197  0.0325  0.2936  0.3412  0.3454  0.3561  0.5246
          0.5876  0.5984  0.6513  0.7315
 Test on the normalization of the wavefunctions
  min sum_G |a(n,k,G)| =  1.000000
  max sum_G |a(n,k,G)| =  1.000000
 Test on the orthogonalization of the wavefunctions
  min sum_G a(n,k,G)a(n',k,G) =  0.000000
  max sum_G a(n,k,G)a(n',k,G) =  0.000000

================================================================================

 ----iterations are completed or convergence reached----

 Mean square residual over all n,k,spin=   8.8058E-06; max=  9.0528E-04
   0.0000  0.0000  0.0000    1  1.08766E-09 kpt; spin; max resid(k); each band:
  5.95E-11 3.16E-11 6.53E-11 1.61E-11 6.45E-11 2.60E-11 5.67E-11 1.53E-11
  3.14E-11 4.08E-11 5.74E-11 2.06E-11 3.27E-11 5.50E-11 1.09E-09
   0.1250  0.0000  0.0000    1  1.89647E-09 kpt; spin; max resid(k); each band:
  9.59E-11 3.10E-11 2.19E-11 4.58E-11 8.88E-11 4.01E-11 7.83E-11 1.78E-11
  2.48E-11 8.73E-11 8.50E-11 8.08E-11 1.52E-11 6.80E-11 1.90E-09
   0.2500  0.0000  0.0000    1  6.97769E-06 kpt; spin; max resid(k); each band:
  1.83E-11 9.13E-11 3.46E-11 6.63E-11 7.66E-11 1.26E-11 2.95E-11 7.45E-11
  3.67E-11 8.32E-11 7.10E-11 2.96E-11 7.33E-11 6.40E-11 6.98E-06
   0.3750  0.0000  0.0000    1  1.05934E-05 kpt; spin; max resid(k); each band:
  8.59E-11 4.69E-11 3.38E-11 9.82E-11 7.77E-11 3.42E-11 5.76E-11 3.86E-11
  4.44E-11 2.77E-11 8.95E-11 6.75E-11 9.65E-11 3.32E-10 1.06E-05
   0.5000  0.0000  0.0000    1  2.59668E-04 kpt; spin; max resid(k); each band:
  4.89E-11 6.62E-11 7.07E-11 8.45E-11 9.17E-11 1.79E-11 2.58E-11 9.55E-11
  2.95E-11 2.72E-11 7.09E-11 6.25E-11 5.51E-11 7.41E-11 2.60E-04
   0.1250  0.1250  0.0000    1  2.55775E-08 kpt; spin; max resid(k); each band:
  2.19E-11 6.44E-11 1.68E-11 6.03E-11 9.80E-11 4.34E-11 6.27E-11 6.01E-11
  6.02E-11 9.85E-11 7.13E-11 2.37E-11 6.34E-11 3.22E-11 2.56E-08
   0.2500  0.1250  0.0000    1  7.72079E-04 kpt; spin; max resid(k); each band:
  7.11E-11 9.36E-11 6.22E-11 5.29E-11 6.96E-11 9.19E-11 5.49E-11 5.42E-11
  2.14E-11 3.16E-11 6.17E-11 7.32E-11 6.85E-11 1.29E-10 7.72E-04
   0.3750  0.1250  0.0000    1  2.63237E-07 kpt; spin; max resid(k); each band:
  6.15E-11 1.84E-11 5.29E-11 7.42E-11 7.33E-11 9.17E-11 7.08E-11 7.40E-11
  5.10E-11 6.96E-11 1.41E-11 7.78E-11 7.08E-11 4.60E-08 2.63E-07
   0.5000  0.1250  0.0000    1  1.24770E-04 kpt; spin; max resid(k); each band:
  6.62E-11 9.30E-12 1.16E-11 8.18E-11 1.02E-11 2.00E-11 7.86E-11 5.83E-11
  2.23E-11 4.00E-11 8.65E-11 2.75E-11 2.87E-11 2.37E-08 1.25E-04
  -0.3750  0.1250  0.0000    1  3.19144E-07 kpt; spin; max resid(k); each band:
  6.64E-11 6.01E-11 8.87E-11 6.91E-11 7.37E-11 4.63E-11 5.51E-11 1.61E-11
  6.33E-11 4.54E-11 8.22E-11 3.72E-11 4.37E-11 2.04E-11 3.19E-07
  -0.2500  0.1250  0.0000    1  2.28735E-05 kpt; spin; max resid(k); each band:
  8.00E-11 7.16E-11 8.26E-11 7.21E-11 4.55E-11 2.43E-11 1.10E-11 1.47E-11
  1.38E-11 4.51E-11 8.29E-11 8.76E-11 5.26E-11 8.60E-11 2.29E-05
  -0.1250  0.1250  0.0000    1  5.46914E-05 kpt; spin; max resid(k); each band:
  2.12E-11 3.93E-11 9.55E-11 2.32E-11 5.87E-11 2.81E-11 5.00E-11 3.21E-11
  5.65E-11 6.24E-11 1.34E-11 5.02E-11 8.71E-11 8.83E-09 5.47E-05
   0.2500  0.2500  0.0000    1  7.91717E-06 kpt; spin; max resid(k); each band:
  8.32E-11 5.70E-11 1.43E-11 5.96E-11 9.35E-11 5.87E-11 1.63E-11 7.25E-11
  1.75E-11 9.59E-11 2.28E-11 7.10E-11 2.00E-11 6.67E-11 7.92E-06
   0.3750  0.2500  0.0000    1  4.93509E-07 kpt; spin; max resid(k); each band:
  1.86E-11 6.88E-11 1.36E-11 7.57E-11 7.18E-11 4.42E-11 1.99E-11 8.19E-11
  1.77E-11 3.45E-11 8.10E-11 2.73E-11 8.19E-11 4.94E-07 1.00E-07
   0.5000  0.2500  0.0000    1  9.00800E-04 kpt; spin; max resid(k); each band:
  8.09E-11 4.83E-11 2.56E-11 3.36E-11 4.95E-11 1.36E-11 1.60E-11 9.45E-11
  1.66E-11 9.66E-11 4.85E-11 6.21E-11 3.41E-11 1.01E-05 9.01E-04
  -0.3750  0.2500  0.0000    1  4.93041E-08 kpt; spin; max resid(k); each band:
  6.49E-11 4.08E-11 9.05E-11 4.37E-11 6.20E-11 9.81E-12 1.19E-11 7.30E-11
  2.30E-11 2.79E-11 5.52E-11 4.65E-11 5.64E-11 1.56E-09 4.93E-08
  -0.2500  0.2500  0.0000    1  1.07411E-04 kpt; spin; max resid(k); each band:
  4.90E-11 3.75E-11 2.27E-11 5.59E-11 9.83E-12 9.09E-11 1.53E-11 8.28E-11
  3.05E-11 2.31E-11 8.93E-11 2.37E-11 8.94E-11 1.78E-05 1.07E-04
   0.3750  0.3750  0.0000    1  2.54778E-04 kpt; spin; max resid(k); each band:
  6.48E-11 5.54E-11 6.75E-11 7.69E-11 3.47E-11 8.09E-11 1.37E-11 6.13E-11
  1.51E-11 5.45E-11 3.64E-11 3.09E-11 5.79E-11 1.03E-04 2.55E-04
   0.5000  0.3750  0.0000    1  5.87458E-10 kpt; spin; max resid(k); each band:
  3.16E-11 5.90E-11 4.92E-11 8.29E-11 3.98E-11 5.56E-11 1.72E-11 3.48E-11
  1.73E-11 7.18E-11 3.13E-11 7.93E-11 5.41E-11 4.25E-10 5.87E-10
  -0.3750  0.3750  0.0000    1  1.54240E-08 kpt; spin; max resid(k); each band:
  7.40E-11 7.56E-11 6.33E-11 4.45E-11 4.80E-11 3.14E-11 7.62E-11 1.05E-11
  2.71E-11 4.23E-11 9.30E-11 8.51E-11 3.60E-11 2.06E-10 1.54E-08
   0.5000  0.5000  0.0000    1  9.05281E-04 kpt; spin; max resid(k); each band:
  5.04E-11 5.36E-11 3.96E-11 7.17E-11 4.26E-11 6.95E-11 1.17E-11 2.51E-11
  8.34E-11 2.79E-11 7.80E-11 6.73E-11 8.07E-11 4.28E-11 9.05E-04
   0.3750  0.2500  0.1250    1  7.03999E-07 kpt; spin; max resid(k); each band:
  6.48E-11 4.95E-11 6.54E-11 7.84E-11 5.84E-11 8.54E-11 7.89E-11 4.35E-11
  1.74E-11 9.45E-12 5.26E-11 1.98E-11 3.64E-11 4.16E-10 7.04E-07
   0.5000  0.2500  0.1250    1  2.41647E-05 kpt; spin; max resid(k); each band:
  5.95E-11 4.35E-11 4.03E-11 1.87E-11 5.62E-11 1.95E-11 2.08E-11 9.03E-11
  6.13E-11 2.10E-11 9.60E-11 2.89E-11 8.11E-11 1.25E-09 2.42E-05
  -0.3750  0.2500  0.1250    1  1.48611E-05 kpt; spin; max resid(k); each band:
  5.51E-11 5.71E-11 5.25E-11 9.36E-11 5.22E-11 8.02E-11 1.65E-11 2.11E-11
  2.13E-11 2.47E-11 1.09E-11 1.71E-11 7.81E-11 1.38E-09 1.49E-05
   0.5000  0.3750  0.1250    1  1.57521E-06 kpt; spin; max resid(k); each band:
  5.43E-11 1.26E-11 5.56E-11 6.91E-11 1.28E-11 9.95E-11 3.37E-11 1.27E-11
  4.74E-11 4.30E-11 2.86E-11 6.65E-11 6.00E-11 2.20E-09 1.58E-06
  -0.3750  0.3750  0.1250    1  1.80680E-04 kpt; spin; max resid(k); each band:
  7.77E-11 6.80E-11 5.54E-11 7.29E-11 7.59E-11 7.71E-11 3.84E-11 2.37E-11
  4.16E-11 3.20E-11 4.68E-11 3.46E-11 3.07E-11 6.31E-10 1.81E-04
  -0.2500  0.3750  0.1250    1  3.93998E-07 kpt; spin; max resid(k); each band:
  6.22E-11 6.61E-11 5.17E-11 7.81E-11 1.43E-11 2.45E-11 5.80E-11 5.85E-11
  4.39E-11 1.78E-11 1.79E-11 3.93E-11 2.95E-11 5.98E-08 3.94E-07
  -0.3750  0.5000  0.1250    1  1.69013E-07 kpt; spin; max resid(k); each band:
  6.32E-11 9.00E-11 6.13E-11 1.63E-11 6.70E-11 1.20E-11 3.20E-11 2.15E-11
  2.72E-11 3.86E-11 6.10E-11 1.73E-11 2.25E-11 2.34E-08 1.69E-07
  -0.2500  0.5000  0.2500    1  4.81437E-05 kpt; spin; max resid(k); each band:
  8.83E-11 1.17E-11 1.43E-11 8.23E-11 8.95E-11 2.33E-11 7.65E-11 2.10E-11
  4.02E-11 6.40E-11 3.30E-11 7.05E-11 8.05E-11 8.79E-09 4.81E-05
 reduced coordinates (array xred) for    2 atoms
       0.000000000000      0.000000000000      0.000000000000
       0.250000000000      0.250000000000      0.250000000000

 cartesian coordinates (angstrom) at end:
    1      0.00000000000000     0.00000000000000     0.00000000000000
    2     -1.41500662633945     1.41500662633945     1.41500662633945
 length scales= 10.695900000000 10.695900000000 10.695900000000 bohr
              =  5.660026505358  5.660026505358  5.660026505358 angstroms
 prteigrs : about to open file alas-o_DS2_EIG
 Eigenvalues (hartree) for nkpt=  29  k points:
 kpt#   1, nband= 15, wtk=  0.00195, kpt=  0.0000  0.0000  0.0000 (reduced coord)
  -0.30052   0.13685   0.13685   0.13685   0.20894   0.29294   0.29294   0.29294
   0.45078   0.47031   0.47031   0.55409   0.55409   0.55409   0.67542
 kpt#   2, nband= 15, wtk=  0.01563, kpt=  0.1250  0.0000  0.0000 (reduced coord)
  -0.29494   0.08365   0.13091   0.13091   0.23695   0.30333   0.30333   0.30712
   0.44682   0.44682   0.47853   0.53280   0.60227   0.60227   0.72365
 kpt#   3, nband= 15, wtk=  0.01563, kpt=  0.2500  0.0000  0.0000 (reduced coord)
  -0.27945   0.01156   0.11923   0.11923   0.22986   0.31601   0.31601   0.37111
   0.44229   0.44229   0.47554   0.58322   0.68904   0.68904   0.80420
 kpt#   4, nband= 15, wtk=  0.01563, kpt=  0.3750  0.0000  0.0000 (reduced coord)
  -0.25944  -0.04523   0.10993   0.10993   0.21689   0.31196   0.31196   0.41618
   0.48882   0.48969   0.48969   0.65299   0.67053   0.67053   0.75901
 kpt#   5, nband= 15, wtk=  0.00781, kpt=  0.5000  0.0000  0.0000 (reduced coord)
  -0.24877  -0.06848   0.10655   0.10655   0.21203   0.30771   0.30771   0.41669
   0.54135   0.56040   0.56040   0.58247   0.58247   0.61346   0.85221
 kpt#   6, nband= 15, wtk=  0.01172, kpt=  0.1250  0.1250  0.0000 (reduced coord)
  -0.29306   0.08519   0.11847   0.11847   0.26188   0.26845   0.32266   0.32266
   0.40759   0.48039   0.49194   0.57195   0.57195   0.59307   0.74869
 kpt#   7, nband= 15, wtk=  0.04688, kpt=  0.2500  0.1250  0.0000 (reduced coord)
  -0.28079   0.03012   0.10431   0.10549   0.25714   0.28704   0.34228   0.34517
   0.41338   0.48103   0.52173   0.57209   0.62974   0.67486   0.79990
 kpt#   8, nband= 15, wtk=  0.04688, kpt=  0.3750  0.1250  0.0000 (reduced coord)
  -0.26177  -0.02754   0.08790   0.09618   0.24649   0.30229   0.34380   0.36291
   0.47086   0.51718   0.51729   0.63655   0.65881   0.71688   0.74861
 kpt#   9, nband= 15, wtk=  0.04688, kpt=  0.5000  0.1250  0.0000 (reduced coord)
  -0.24655  -0.06170   0.07394   0.09660   0.24137   0.29918   0.33137   0.42149
   0.48129   0.55594   0.55959   0.59697   0.60777   0.70272   0.81439
 kpt#  10, nband= 15, wtk=  0.04688, kpt= -0.3750  0.1250  0.0000 (reduced coord)
  -0.25026  -0.05396   0.06879   0.10515   0.24524   0.30444   0.32439   0.42603
   0.47246   0.49595   0.55563   0.61355   0.68104   0.68968   0.76186
 kpt#  11, nband= 15, wtk=  0.04688, kpt= -0.2500  0.1250  0.0000 (reduced coord)
  -0.26855  -0.00982   0.07523   0.11885   0.25647   0.31501   0.32086   0.37132
   0.41639   0.49392   0.53637   0.60664   0.67406   0.69909   0.76281
 kpt#  12, nband= 15, wtk=  0.02344, kpt= -0.1250  0.1250  0.0000 (reduced coord)
  -0.28599   0.04598   0.09779   0.13081   0.26127   0.29770   0.30751   0.34585
   0.41201   0.45682   0.51817   0.55841   0.59739   0.68050   0.78243
 kpt#  13, nband= 15, wtk=  0.01172, kpt=  0.2500  0.2500  0.0000 (reduced coord)
  -0.27217   0.01779   0.08748   0.08748   0.22877   0.27289   0.38632   0.38632
   0.40927   0.51055   0.57598   0.62462   0.62462   0.64442   0.78630
 kpt#  14, nband= 15, wtk=  0.04688, kpt=  0.3750  0.2500  0.0000 (reduced coord)
  -0.25613  -0.01947   0.06447   0.07754   0.22653   0.27242   0.37926   0.40290
   0.48942   0.54327   0.58751   0.64483   0.65511   0.70712   0.71827
 kpt#  15, nband= 15, wtk=  0.04688, kpt=  0.5000  0.2500  0.0000 (reduced coord)
  -0.24037  -0.04925   0.03602   0.07750   0.22810   0.32406   0.36908   0.39065
   0.51361   0.55677   0.60764   0.61868   0.62071   0.76522   0.80536
 kpt#  16, nband= 15, wtk=  0.04688, kpt= -0.3750  0.2500  0.0000 (reduced coord)
  -0.23811  -0.05208   0.02068   0.08727   0.23891   0.35058   0.37483   0.41078
   0.44966   0.47017   0.59776   0.68622   0.71264   0.73723   0.75455
 kpt#  17, nband= 15, wtk=  0.02344, kpt= -0.2500  0.2500  0.0000 (reduced coord)
  -0.25169  -0.03103   0.03084   0.10381   0.25926   0.34622   0.35274   0.36582
   0.41756   0.51159   0.59419   0.63480   0.64812   0.74630   0.79980
 kpt#  18, nband= 15, wtk=  0.01172, kpt=  0.3750  0.3750  0.0000 (reduced coord)
  -0.24439  -0.03815   0.06496   0.06496   0.19862   0.23227   0.46000   0.46000
   0.49833   0.56032   0.64448   0.65538   0.65538   0.72525   0.72648
 kpt#  19, nband= 15, wtk=  0.04688, kpt=  0.5000  0.3750  0.0000 (reduced coord)
  -0.23264  -0.05480   0.03995   0.06247   0.20313   0.24774   0.45773   0.46650
   0.53492   0.56882   0.61415   0.63063   0.69270   0.72067   0.72150
 kpt#  20, nband= 15, wtk=  0.02344, kpt= -0.3750  0.3750  0.0000 (reduced coord)
  -0.22989  -0.05384   0.01088   0.07064   0.21610   0.31675   0.43590   0.44101
   0.45430   0.49463   0.67108   0.70135   0.71751   0.73197   0.73903
 kpt#  21, nband= 15, wtk=  0.00586, kpt=  0.5000  0.5000  0.0000 (reduced coord)
  -0.22880  -0.06319   0.05701   0.05701   0.18676   0.21734   0.51390   0.51390
   0.56538   0.59884   0.59884   0.61592   0.62859   0.64962   0.83101
 kpt#  22, nband= 15, wtk=  0.04688, kpt=  0.3750  0.2500  0.1250 (reduced coord)
  -0.26649  -0.00237   0.06469   0.10087   0.26636   0.29179   0.32946   0.37501
   0.43695   0.51962   0.57267   0.59177   0.66717   0.68665   0.74286
 kpt#  23, nband= 15, wtk=  0.09375, kpt=  0.5000  0.2500  0.1250 (reduced coord)
  -0.24850  -0.03951   0.04302   0.08679   0.26956   0.29865   0.34703   0.38774
   0.47910   0.52179   0.58144   0.62956   0.67364   0.70661   0.77444
 kpt#  24, nband= 15, wtk=  0.04688, kpt= -0.3750  0.2500  0.1250 (reduced coord)
  -0.23922  -0.05708   0.03741   0.08005   0.26913   0.29055   0.38086   0.41538
   0.44170   0.54011   0.58410   0.60373   0.71074   0.73351   0.80299
 kpt#  25, nband= 15, wtk=  0.04688, kpt=  0.5000  0.3750  0.1250 (reduced coord)
  -0.24149  -0.04081   0.04259   0.06172   0.23755   0.27011   0.37341   0.45782
   0.50591   0.54659   0.62671   0.64976   0.66964   0.68870   0.73975
 kpt#  26, nband= 15, wtk=  0.09375, kpt= -0.3750  0.3750  0.1250 (reduced coord)
  -0.23153  -0.05141   0.01857   0.05564   0.25242   0.32184   0.35798   0.43320
   0.47032   0.56200   0.61113   0.66033   0.71626   0.73780   0.78866
 kpt#  27, nband= 15, wtk=  0.04688, kpt= -0.2500  0.3750  0.1250 (reduced coord)
  -0.23508  -0.04704   0.01322   0.06730   0.26915   0.32899   0.35578   0.42090
   0.45009   0.50178   0.65454   0.66292   0.69270   0.74623   0.75912
 kpt#  28, nband= 15, wtk=  0.02344, kpt= -0.3750  0.5000  0.1250 (reduced coord)
  -0.22821  -0.05776   0.03758   0.04320   0.22624   0.25834   0.43408   0.45901
   0.52390   0.58801   0.59634   0.64470   0.71661   0.73672   0.76733
 kpt#  29, nband= 15, wtk=  0.01172, kpt= -0.2500  0.5000  0.2500 (reduced coord)
  -0.22762  -0.05068   0.01966   0.03254   0.29357   0.34121   0.34536   0.35610
   0.52458   0.58761   0.59843   0.65134   0.73155   0.75873   0.78991
 Total charge density [el/Bohr^3]
,     Maximum=    1.0138E-01  at reduced coord.    0.1875    0.1875    0.4688
,Next maximum=    1.0138E-01  at reduced coord.    0.1563    0.1875    0.4688
,     Minimum=    2.6532E-03  at reduced coord.    0.7500    0.7500    0.7500
,Next minimum=    2.7121E-03  at reduced coord.    0.7500    0.7500    0.7188
,  Integrated=    8.0000E+00

== END DATASET(S) ==============================================================
================================================================================
  
 -outvars: echo values of variables after computation  --------
            acell      1.0695900000E+01  1.0695900000E+01  1.0695900000E+01 Bohr
              amu      2.69815390E+01  7.49215900E+01
           diemac      1.20000000E+01
             ecut      2.00000000E+01 Hartree
           etotal1    -8.5228616897E+00
            fcart1    -0.0000000000E+00 -0.0000000000E+00 -0.0000000000E+00
                      -0.0000000000E+00 -0.0000000000E+00 -0.0000000000E+00
           getden1          0
           getden2         -1
             iscf1          7
             iscf2         -2
           istwfk2       1    0    0    0    1    0    0    0    0    0
                         0    0    0    0    0    0    0    0    0    0
                         1    0    0    0    0    0    0    0    0
                       outvar_i_n : Printing only first  50 k-points.
              ixc           7
           jdtset        1    2
              kpt1    -6.25000000E-02 -1.25000000E-01  0.00000000E+00
                      -6.25000000E-02 -2.50000000E-01  0.00000000E+00
                      -1.25000000E-01 -1.87500000E-01  0.00000000E+00
                      -6.25000000E-02 -1.87500000E-01  6.25000000E-02
                      -6.25000000E-02 -3.75000000E-01  0.00000000E+00
                      -1.25000000E-01 -3.12500000E-01  0.00000000E+00
                      -6.25000000E-02 -3.12500000E-01  6.25000000E-02
                      -1.87500000E-01 -2.50000000E-01  0.00000000E+00
                      -1.25000000E-01 -2.50000000E-01  6.25000000E-02
                      -6.25000000E-02 -2.50000000E-01  1.25000000E-01
                      -6.25000000E-02  5.00000000E-01  0.00000000E+00
                      -1.25000000E-01 -4.37500000E-01  0.00000000E+00
                      -6.25000000E-02 -4.37500000E-01  6.25000000E-02
                      -1.87500000E-01 -3.75000000E-01  0.00000000E+00
                      -1.25000000E-01 -3.75000000E-01  6.25000000E-02
                      -6.25000000E-02 -3.75000000E-01  1.25000000E-01
                      -2.50000000E-01 -3.12500000E-01  0.00000000E+00
                      -1.87500000E-01 -3.12500000E-01  6.25000000E-02
                      -1.25000000E-01 -3.12500000E-01  1.25000000E-01
                      -6.25000000E-02 -3.12500000E-01  1.87500000E-01
                      -6.25000000E-02  3.75000000E-01  0.00000000E+00
                      -1.25000000E-01  4.37500000E-01  0.00000000E+00
                      -1.87500000E-01  5.00000000E-01  0.00000000E+00
                      -1.25000000E-01  5.00000000E-01  6.25000000E-02
                      -2.50000000E-01 -4.37500000E-01  0.00000000E+00
                      -1.87500000E-01 -4.37500000E-01  6.25000000E-02
                      -1.25000000E-01 -4.37500000E-01  1.25000000E-01
                      -6.25000000E-02 -4.37500000E-01  1.87500000E-01
                      -3.12500000E-01 -3.75000000E-01  0.00000000E+00
                      -2.50000000E-01 -3.75000000E-01  6.25000000E-02
                      -1.87500000E-01 -3.75000000E-01  1.25000000E-01
                      -1.25000000E-01 -3.75000000E-01  1.87500000E-01
                      -6.25000000E-02 -3.75000000E-01  2.50000000E-01
                      -6.25000000E-02  2.50000000E-01  0.00000000E+00
                      -1.25000000E-01  3.12500000E-01  0.00000000E+00
                      -1.87500000E-01  3.75000000E-01  0.00000000E+00
                      -2.50000000E-01  4.37500000E-01  0.00000000E+00
                      -3.12500000E-01  5.00000000E-01  0.00000000E+00
                      -2.50000000E-01  5.00000000E-01  6.25000000E-02
                      -1.87500000E-01  5.00000000E-01  1.25000000E-01
                      -3.75000000E-01 -4.37500000E-01  0.00000000E+00
                      -3.12500000E-01 -4.37500000E-01  6.25000000E-02
                      -2.50000000E-01 -4.37500000E-01  1.25000000E-01
                      -1.87500000E-01 -4.37500000E-01  1.87500000E-01
                      -1.25000000E-01 -4.37500000E-01  2.50000000E-01
                      -6.25000000E-02 -4.37500000E-01  3.12500000E-01
                      -6.25000000E-02  1.25000000E-01  0.00000000E+00
                      -1.25000000E-01  1.87500000E-01  0.00000000E+00
                      -1.87500000E-01  2.50000000E-01  0.00000000E+00
                      -2.50000000E-01  3.12500000E-01  0.00000000E+00
              kpt2     0.00000000E+00  0.00000000E+00  0.00000000E+00
                       1.25000000E-01  0.00000000E+00  0.00000000E+00
                       2.50000000E-01  0.00000000E+00  0.00000000E+00
                       3.75000000E-01  0.00000000E+00  0.00000000E+00
                       5.00000000E-01  0.00000000E+00  0.00000000E+00
                       1.25000000E-01  1.25000000E-01  0.00000000E+00
                       2.50000000E-01  1.25000000E-01  0.00000000E+00
                       3.75000000E-01  1.25000000E-01  0.00000000E+00
                       5.00000000E-01  1.25000000E-01  0.00000000E+00
                      -3.75000000E-01  1.25000000E-01  0.00000000E+00
                      -2.50000000E-01  1.25000000E-01  0.00000000E+00
                      -1.25000000E-01  1.25000000E-01  0.00000000E+00
                       2.50000000E-01  2.50000000E-01  0.00000000E+00
                       3.75000000E-01  2.50000000E-01  0.00000000E+00
                       5.00000000E-01  2.50000000E-01  0.00000000E+00
                      -3.75000000E-01  2.50000000E-01  0.00000000E+00
                      -2.50000000E-01  2.50000000E-01  0.00000000E+00
                       3.75000000E-01  3.75000000E-01  0.00000000E+00
                       5.00000000E-01  3.75000000E-01  0.00000000E+00
                      -3.75000000E-01  3.75000000E-01  0.00000000E+00
                       5.00000000E-01  5.00000000E-01  0.00000000E+00
                       3.75000000E-01  2.50000000E-01  1.25000000E-01
                       5.00000000E-01  2.50000000E-01  1.25000000E-01
                      -3.75000000E-01  2.50000000E-01  1.25000000E-01
                       5.00000000E-01  3.75000000E-01  1.25000000E-01
                      -3.75000000E-01  3.75000000E-01  1.25000000E-01
                      -2.50000000E-01  3.75000000E-01  1.25000000E-01
                      -3.75000000E-01  5.00000000E-01  1.25000000E-01
                      -2.50000000E-01  5.00000000E-01  2.50000000E-01
                       outvar_i_n : Printing only first  50 k-points.
         kptrlatt1       8   -8    8     -8    8    8     -8   -8    8
         kptrlatt2       8    0    0      0    8    0      0    0    8
          kptrlen1     8.55672000E+01
          kptrlen2     6.05051474E+01
          kssform1          1
          kssform2          3
P           mkmem1         60
P           mkmem2         29
            natom           2
            nband1          5
            nband2         15
         nbandkss1          0
         nbandkss2         13
           nbdbuf1          0
           nbdbuf2          2
           ndtset           2
            ngfft          32      32      32
             nkpt1         60
             nkpt2         29
            nstep         100
             nsym          24
           ntypat           2
              occ      2.000000  2.000000  2.000000  2.000000  0.000000
            rprim     -5.0000000000E-01  0.0000000000E+00  5.0000000000E-01
                       0.0000000000E+00  5.0000000000E-01  5.0000000000E-01
                      -5.0000000000E-01  5.0000000000E-01  0.0000000000E+00
           shiftk1     5.00000000E-01  5.00000000E-01  5.00000000E-01
           shiftk2     0.00000000E+00  0.00000000E+00  0.00000000E+00
          spgroup         216
           strten1     5.5774589137E-05  5.5774589137E-05  5.5774589137E-05
                       0.0000000000E+00  0.0000000000E+00  0.0000000000E+00
        symmorphi           0
           symrel      1  0  0   0  1  0   0  0  1       0 -1  1   0 -1  0   1 -1  0
                      -1  0  0  -1  0  1  -1  1  0       0  1 -1   1  0 -1   0  0 -1
                      -1  0  0  -1  1  0  -1  0  1       0 -1  1   1 -1  0   0 -1  0
                       1  0  0   0  0  1   0  1  0       0  1 -1   0  0 -1   1  0 -1
                      -1  0  1  -1  1  0  -1  0  0       0 -1  0   1 -1  0   0 -1  1
                       1  0 -1   0  0 -1   0  1 -1       0  1  0   0  0  1   1  0  0
                       1  0 -1   0  1 -1   0  0 -1       0 -1  0   0 -1  1   1 -1  0
                      -1  0  1  -1  0  0  -1  1  0       0  1  0   1  0  0   0  0  1
                       0  0 -1   0  1 -1   1  0 -1       1 -1  0   0 -1  1   0 -1  0
                       0  0  1   1  0  0   0  1  0      -1  1  0  -1  0  0  -1  0  1
                       0  0  1   0  1  0   1  0  0       1 -1  0   0 -1  0   0 -1  1
                       0  0 -1   1  0 -1   0  1 -1      -1  1  0  -1  0  1  -1  0  0
           toldfe1     1.00000000E-06 Hartree
           toldfe2     0.00000000E+00 Hartree
           tolwfr1     0.00000000E+00
           tolwfr2     1.00000000E-10
            typat      1  2
              wtk1       0.01172    0.01172    0.01172    0.02344    0.01172    0.01172
                         0.02344    0.01172    0.02344    0.02344    0.01172    0.01172
                         0.02344    0.01172    0.02344    0.02344    0.01172    0.02344
                         0.02344    0.02344    0.01172    0.01172    0.01172    0.02344
                         0.01172    0.02344    0.02344    0.02344    0.01172    0.02344
                         0.02344    0.02344    0.02344    0.01172    0.01172    0.01172
                         0.01172    0.01172    0.02344    0.02344    0.01172    0.02344
                         0.02344    0.02344    0.02344    0.02344    0.01172    0.01172
                         0.01172    0.01172
              wtk2       0.00195    0.01563    0.01563    0.01563    0.00781    0.01172
                         0.04688    0.04688    0.04688    0.04688    0.04688    0.02344
                         0.01172    0.04688    0.04688    0.04688    0.02344    0.01172
                         0.04688    0.02344    0.00586    0.04688    0.09375    0.04688
                         0.04688    0.09375    0.04688    0.02344    0.01172
                       outvars : Printing only first  50 k-points.
           xangst      0.0000000000E+00  0.0000000000E+00  0.0000000000E+00
                      -1.4150066263E+00  1.4150066263E+00  1.4150066263E+00
            xcart      0.0000000000E+00  0.0000000000E+00  0.0000000000E+00
                      -2.6739750000E+00  2.6739750000E+00  2.6739750000E+00
             xred      0.0000000000E+00  0.0000000000E+00  0.0000000000E+00
                       2.5000000000E-01  2.5000000000E-01  2.5000000000E-01
            znucl       13.00000   33.00000

================================================================================


- Timing analysis has been suppressed with timopt=0



================================================================================

 Suggested references for the acknowledgment of ABINIT usage.

 The users of ABINIT have little formal obligations with respect to the ABINIT group
 (those specified in the GNU General Public License, http://www.gnu.org/copyleft/gpl.txt).
 However, it is common practice in the scientific literature,
 to acknowledge the efforts of people that have made the research possible.
 In this spirit, please find below suggested citations of work written by ABINIT developers,
 corresponding to implementations inside of ABINIT that you have used in the present run.
 Note also that it will be of great value to readers of publications presenting these results,
 to read papers enabling them to understand the theoretical formalism and details
 of the ABINIT implementation.
 For information on why they are suggested, see also http://www.abinit.org/about/?text=acknowledgments.

 [1] Ab initio pseudopotentials for electronic structure calculations of poly-atomic systems, 
 using density-functional theory.
 M. Fuchs, M. Scheffler, Comput. Phys. Commun. 119, 67 (1999).
 Comment : Some pseudopotential generated using the FHI code were used.

 [2] ABINIT : First-principles approach of materials and nanosystem properties.
 X. Gonze, B. Amadon, P.-M. Anglade, J.-M. Beuken, F. Bottin, P. Boulanger, F. Bruneval,
 D. Caliste, R. Caracas, M. Cote, T. Deutsch, L. Genovese, Ph. Ghosez, M. Giantomassi
 S. Goedecker, D.R. Hamann, P. Hermet, F. Jollet, G. Jomard, S. Leroux, M. Mancini, S. Mazevet,
 M.J.T. Oliveira, G. Onida, Y. Pouillon, T. Rangel, G.-M. Rignanese, D. Sangalli, R. Shaltaf,
 M. Torrent, M.J. Verstraete, G. Zerah, J.W. Zwanziger
 Computer Phys. Comm. 180, 2582-2615 (2009).
 Comment : the third generic paper describing the ABINIT project.
 Note that a version of this paper, that is not formatted for Computer Phys. Comm. 
 is available at http://www.abinit.org/about/ABINIT_CPC_v10.pdf .
 The licence allows the authors to put it on the Web.

 [3] A brief introduction to the ABINIT software package.
 X. Gonze, G.-M. Rignanese, M. Verstraete, J.-M. Beuken, Y. Pouillon, R. Caracas, F. Jollet,
 M. Torrent, G. Zerah, M. Mikami, Ph. Ghosez, M. Veithen, J.-Y. Raty, V. Olevano, F. Bruneval,
 L. Reining, R. Godby, G. Onida, D.R. Hamann, and D.C. Allan.
 Z. Kristallogr. 220, 558-562 (2005).
 Comment : the second generic paper describing the ABINIT project. Note that this paper
 should be cited especially if you are using the GW part of ABINIT, as several authors
 of this part are not in the list of authors of the first or third paper.
 The .pdf of the latter paper is available at http://www.abinit.org/about/zfk_0505-06_558-562.pdf.
 Note that it should not redistributed (Copyright by Oldenburg Wissenshaftverlag,
 the licence allows the authors to put it on the Web).


 And optionally :

 [4] First-principles computation of material properties : the ABINIT software project. 
 X. Gonze, J.-M. Beuken, R. Caracas, F. Detraux, M. Fuchs, G.-M. Rignanese, L. Sindic,
 M. Verstraete, G. Zerah, F. Jollet, M. Torrent, A. Roy, M. Mikami, Ph. Ghosez, J.-Y. Raty, D.C. Allan.
 Computational Materials Science 25, 478-492 (2002). http://dx.doi.org/10.1016/S0927-0256(02)00325-7
 Comment : the original paper describing the ABINIT project.

 [5] Fast radix 2, 3, 4 and 5 kernels for Fast Fourier Transformations
 on computers with overlapping multiply-add instructions.
 S. Goedecker, SIAM J. on Scientific Computing 18, 1605 (1997).
-
- Proc.   0 individual time (sec): cpu=         33.2  wall=         33.3

================================================================================

 Calculation completed.
.Delivered    6 WARNINGs and   5 COMMENTs to log file.
+Overall time at end (sec) : cpu=         33.2  wall=         33.3
