
     Program PWSCF v.6.6 starts on  2Dec2020 at 12: 1:57 

     This program is part of the open-source Quantum ESPRESSO suite
     for quantum simulation of materials; please cite
         "P. Giannozzi et al., J. Phys.:Condens. Matter 21 395502 (2009);
         "P. Giannozzi et al., J. Phys.:Condens. Matter 29 465901 (2017);
          URL http://www.quantum-espresso.org", 
     in publications or presentations arising from this work. More details at
     http://www.quantum-espresso.org/quote

     Parallel version (MPI), running on     3 processors

     MPI processes distributed on     1 nodes
     R & G space division:  proc/nbgrp/npool/nimage =       3
     Fft bands division:     nmany     =       1
     Waiting for input...
     Reading input from standard input

     Current dimensions of program PWSCF are:
     Max number of different atomic species (ntypx) = 10
     Max number of k-points (npk) =  40000
     Max angular momentum in pseudopotentials (lmaxx) =  3

     Subspace diagonalization in iterative solution of the eigenvalue problem:
     a serial algorithm will be used


     Parallelization info
     --------------------
     sticks:   dense  smooth     PW     G-vecs:    dense   smooth      PW
     Min        1034    1034    282               147040   147040   20690
     Max        1035    1035    283               147051   147051   20701
     Sum        3103    3103    847               441135   441135   62085



     bravais-lattice index     =            4
     lattice parameter (alat)  =      12.6872  a.u.
     unit-cell volume          =    5575.9936 (a.u.)^3
     number of atoms/cell      =            8
     number of atomic types    =            2
     number of electrons       =        70.00
     number of Kohn-Sham states=           70
     kinetic-energy cutoff     =      70.0000  Ry
     charge density cutoff     =     280.0000  Ry
     convergence threshold     =      1.0E-08
     mixing beta               =       0.7000
     number of iterations used =            8  plain     mixing
     Exchange-correlation= PZ
                           (   1   1   0   0   0   0   0)
     Noncollinear calculation with spin-orbit


     celldm(1)=  12.687201  celldm(2)=   0.000000  celldm(3)=   3.152784
     celldm(4)=   0.000000  celldm(5)=   0.000000  celldm(6)=   0.000000

     crystal axes: (cart. coord. in units of alat)
               a(1) = (   1.000000   0.000000   0.000000 )  
               a(2) = (  -0.500000   0.866025   0.000000 )  
               a(3) = (   0.000000   0.000000   3.152784 )  

     reciprocal axes: (cart. coord. in units 2 pi/alat)
               b(1) = (  1.000000  0.577350 -0.000000 )  
               b(2) = (  0.000000  1.154701  0.000000 )  
               b(3) = (  0.000000 -0.000000  0.317180 )  


     PseudoPot. # 1 for Cr read from file:
     ../../psps/Cr.upf
     MD5 check sum: b32cdf955d2375499d0ea06d1493a96a
     Pseudo is Norm-conserving + core correction, Zval = 14.0
     Generated using ONCVPSP code by D. R. Hamann
     Using radial grid of 1600 points, 10 beta functions with: 
                l(1) =   0
                l(2) =   0
                l(3) =   1
                l(4) =   1
                l(5) =   1
                l(6) =   1
                l(7) =   2
                l(8) =   2
                l(9) =   2
               l(10) =   2

     PseudoPot. # 2 for I  read from file:
     ../../psps/I.upf
     MD5 check sum: d0d4d45a39a9ecd37d4d9deb6bd296a3
     Pseudo is Norm-conserving + core correction, Zval =  7.0
     Generated using ONCVPSP code by D. R. Hamann
     Using radial grid of 1196 points, 10 beta functions with: 
                l(1) =   0
                l(2) =   0
                l(3) =   1
                l(4) =   1
                l(5) =   1
                l(6) =   1
                l(7) =   2
                l(8) =   2
                l(9) =   2
               l(10) =   2

     atomic species   valence    mass     pseudopotential
        Cr            14.00    51.99000     Cr( 1.00)
        I              7.00   126.90000     I ( 1.00)

     12 Sym. Ops., with inversion, found


                                    s                        frac. trans.

      isym =  1     identity                                     

 Time Reversal            0
 cryst.   s( 1) = (     1          0          0      )
                  (     0          1          0      )
                  (     0          0          1      )

 cart.    s( 1) = (  1.0000000  0.0000000  0.0000000 )
                  (  0.0000000  1.0000000  0.0000000 )
                  (  0.0000000  0.0000000  1.0000000 )


      isym =  2     180 deg rotation - cart. axis [0,1,0]        

 Time Reversal            1
 cryst.   s( 2) = (    -1          0          0      )
                  (     1          1          0      )
                  (     0          0         -1      )

 cart.    s( 2) = ( -1.0000000  0.0000000  0.0000000 )
                  (  0.0000000  1.0000000  0.0000000 )
                  (  0.0000000  0.0000000 -1.0000000 )


      isym =  3     120 deg rotation - cryst. axis [0,0,1]       

 Time Reversal            0
 cryst.   s( 3) = (     0          1          0      )
                  (    -1         -1          0      )
                  (     0          0          1      )

 cart.    s( 3) = ( -0.5000000 -0.8660254  0.0000000 )
                  (  0.8660254 -0.5000000  0.0000000 )
                  (  0.0000000  0.0000000  1.0000000 )


      isym =  4     120 deg rotation - cryst. axis [0,0,-1]      

 Time Reversal            0
 cryst.   s( 4) = (    -1         -1          0      )
                  (     1          0          0      )
                  (     0          0          1      )

 cart.    s( 4) = ( -0.5000000  0.8660254  0.0000000 )
                  ( -0.8660254 -0.5000000  0.0000000 )
                  (  0.0000000  0.0000000  1.0000000 )


      isym =  5     180 deg rotation - cryst. axis [1,-1,0]      

 Time Reversal            1
 cryst.   s( 5) = (     0         -1          0      )
                  (    -1          0          0      )
                  (     0          0         -1      )

 cart.    s( 5) = (  0.5000000 -0.8660254  0.0000000 )
                  ( -0.8660254 -0.5000000  0.0000000 )
                  (  0.0000000  0.0000000 -1.0000000 )


      isym =  6     180 deg rotation - cryst. axis [2,1,0]       

 Time Reversal            1
 cryst.   s( 6) = (     1          1          0      )
                  (     0         -1          0      )
                  (     0          0         -1      )

 cart.    s( 6) = (  0.5000000  0.8660254  0.0000000 )
                  (  0.8660254 -0.5000000  0.0000000 )
                  (  0.0000000  0.0000000 -1.0000000 )


      isym =  7     inversion                                    

 Time Reversal            0
 cryst.   s( 7) = (    -1          0          0      )
                  (     0         -1          0      )
                  (     0          0         -1      )

 cart.    s( 7) = ( -1.0000000  0.0000000  0.0000000 )
                  (  0.0000000 -1.0000000  0.0000000 )
                  (  0.0000000  0.0000000 -1.0000000 )


      isym =  8     inv. 180 deg rotation - cart. axis [0,1,0]   

 Time Reversal            1
 cryst.   s( 8) = (     1          0          0      )
                  (    -1         -1          0      )
                  (     0          0          1      )

 cart.    s( 8) = (  1.0000000  0.0000000  0.0000000 )
                  (  0.0000000 -1.0000000  0.0000000 )
                  (  0.0000000  0.0000000  1.0000000 )


      isym =  9     inv. 120 deg rotation - cryst. axis [0,0,1]  

 Time Reversal            0
 cryst.   s( 9) = (     0         -1          0      )
                  (     1          1          0      )
                  (     0          0         -1      )

 cart.    s( 9) = (  0.5000000  0.8660254  0.0000000 )
                  ( -0.8660254  0.5000000  0.0000000 )
                  (  0.0000000  0.0000000 -1.0000000 )


      isym = 10     inv. 120 deg rotation - cryst. axis [0,0,-1] 

 Time Reversal            0
 cryst.   s(10) = (     1          1          0      )
                  (    -1          0          0      )
                  (     0          0         -1      )

 cart.    s(10) = (  0.5000000 -0.8660254  0.0000000 )
                  (  0.8660254  0.5000000  0.0000000 )
                  (  0.0000000  0.0000000 -1.0000000 )


      isym = 11     inv. 180 deg rotation - cryst. axis [1,-1,0] 

 Time Reversal            1
 cryst.   s(11) = (     0          1          0      )
                  (     1          0          0      )
                  (     0          0          1      )

 cart.    s(11) = ( -0.5000000  0.8660254  0.0000000 )
                  (  0.8660254  0.5000000  0.0000000 )
                  (  0.0000000  0.0000000  1.0000000 )


      isym = 12     inv. 180 deg rotation - cryst. axis [2,1,0]  

 Time Reversal            1
 cryst.   s(12) = (    -1         -1          0      )
                  (     0          1          0      )
                  (     0          0          1      )

 cart.    s(12) = ( -0.5000000 -0.8660254  0.0000000 )
                  ( -0.8660254  0.5000000  0.0000000 )
                  (  0.0000000  0.0000000  1.0000000 )


     the magnetic double point group is D_3d (-3m)  [S_6 (-3)   ]
     using the double point group S_6 (-3)   
     there are 12 classes and  6 irreducible representations
     the character table:

       E     -E    C3    -C3   C3^2  -C3^2  i    -i    S6^5  -S6^5 S6    -S6  
                                                                              
G_4+   1.00 -1.00  0.50 -0.50  0.50 -0.50  1.00 -1.00  0.50 -0.50  0.50 -0.50
G_5+   1.00 -1.00  0.50 -0.50  0.50 -0.50  1.00 -1.00  0.50 -0.50  0.50 -0.50
G_6+   1.00 -1.00 -1.00  1.00 -1.00  1.00  1.00 -1.00 -1.00  1.00 -1.00  1.00
G_4-   1.00 -1.00  0.50 -0.50  0.50 -0.50 -1.00  1.00 -0.50  0.50 -0.50  0.50
G_5-   1.00 -1.00  0.50 -0.50  0.50 -0.50 -1.00  1.00 -0.50  0.50 -0.50  0.50
G_6-   1.00 -1.00 -1.00  1.00 -1.00  1.00 -1.00  1.00  1.00 -1.00  1.00 -1.00

     imaginary part

       E     -E    C3    -C3   C3^2  -C3^2  i    -i    S6^5  -S6^5 S6    -S6  
                                                                              
G_4+   0.00  0.00  0.87 -0.87 -0.87  0.87  0.00  0.00  0.87 -0.87 -0.87  0.87
G_5+   0.00  0.00 -0.87  0.87  0.87 -0.87  0.00  0.00 -0.87  0.87  0.87 -0.87
G_6+   0.00  0.00  0.00  0.00  0.00  0.00  0.00  0.00  0.00  0.00  0.00  0.00
G_4-   0.00  0.00  0.87 -0.87 -0.87  0.87  0.00  0.00 -0.87  0.87  0.87 -0.87
G_5-   0.00  0.00 -0.87  0.87  0.87 -0.87  0.00  0.00  0.87 -0.87 -0.87  0.87
G_6-   0.00  0.00  0.00  0.00  0.00  0.00  0.00  0.00  0.00  0.00  0.00  0.00

     the symmetry operations in each class and the name of the first element:

     E             1
          identity                                               
     -E           -1
          identity E                                             
     C3            2
          120 deg rotation - cryst. axis [0,0,1]                 
     -C3          -2
          120 deg rotation - cryst. axis [0,0,1] E               
     C3^2          3
          120 deg rotation - cryst. axis [0,0,-1]                
     -C3^2        -3
          120 deg rotation - cryst. axis [0,0,-1] E              
      i            4
          inversion                                              
     -i           -4
          inversion E                                            
     S6^5          5
          inv. 120 deg rotation - cryst. axis [0,0,1]            
     -S6^5        -5
          inv. 120 deg rotation - cryst. axis [0,0,1] E          
     S6            6
          inv. 120 deg rotation - cryst. axis [0,0,-1]           
     -S6          -6
          inv. 120 deg rotation - cryst. axis [0,0,-1] E         

   Cartesian axes

     site n.     atom                  positions (alat units)
         1           Cr  tau(   1) = (   0.5000000   0.2886751   0.0000000  )
         2           Cr  tau(   2) = (  -0.0000000   0.5773503   0.0000000  )
         3           I   tau(   3) = (   0.3254097   0.5636261  -0.2277343  )
         4           I   tau(   4) = (  -0.1745903   0.3023993  -0.2277343  )
         5           I   tau(   5) = (   0.3491807   0.0000000  -0.2277343  )
         6           I   tau(   6) = (   0.1745903   0.3023993   0.2277343  )
         7           I   tau(   7) = (   0.6508193   0.0000000   0.2277343  )
         8           I   tau(   8) = (  -0.3254097   0.5636261   0.2277343  )

   Crystallographic axes

     site n.     atom                  positions (cryst. coord.)
         1           Cr  tau(   1) = (  0.6666667  0.3333333  0.0000000  )
         2           Cr  tau(   2) = (  0.3333333  0.6666667  0.0000000  )
         3           I   tau(   3) = (  0.6508193  0.6508193 -0.0722328  )
         4           I   tau(   4) = (  0.0000000  0.3491807 -0.0722328  )
         5           I   tau(   5) = (  0.3491807  0.0000000 -0.0722328  )
         6           I   tau(   6) = (  0.3491807  0.3491807  0.0722328  )
         7           I   tau(   7) = (  0.6508193  0.0000000  0.0722328  )
         8           I   tau(   8) = (  0.0000000  0.6508193  0.0722328  )

     number of k points=     3
                       cart. coord. in units 2pi/alat
        k(    1) = (   0.0000000   0.0000000   0.0000000), wk =   0.1111111
        k(    2) = (   0.0000000   0.3849002   0.0000000), wk =   0.6666667
        k(    3) = (   0.3333333   0.5773503   0.0000000), wk =   0.2222222

                       cryst. coord.
        k(    1) = (   0.0000000   0.0000000   0.0000000), wk =   0.1111111
        k(    2) = (   0.0000000   0.3333333   0.0000000), wk =   0.6666667
        k(    3) = (   0.3333333   0.3333333   0.0000000), wk =   0.2222222

     Dense  grid:   441135 G-vectors     FFT dimensions: (  72,  72, 216)

     Dynamical RAM for                 wfc:      39.27 MB

     Dynamical RAM for     wfc (w. buffer):     157.07 MB

     Dynamical RAM for           str. fact:       4.49 MB

     Dynamical RAM for           local pot:       0.00 MB

     Dynamical RAM for          nlocal pot:      76.29 MB

     Dynamical RAM for                qrad:       7.04 MB

     Dynamical RAM for          rho,v,vnew:      61.10 MB

     Dynamical RAM for               rhoin:      20.37 MB

     Dynamical RAM for            rho*nmix:     143.60 MB

     Dynamical RAM for           G-vectors:       9.54 MB

     Dynamical RAM for          h,s,v(r/c):       0.90 MB

     Dynamical RAM for          <psi|beta>:       0.58 MB

     Dynamical RAM for                 psi:      78.54 MB

     Dynamical RAM for                hpsi:      78.54 MB

     Dynamical RAM for      wfcinit/wfcrot:      74.23 MB

     Estimated static dynamical RAM per process >     509.00 MB

     Estimated max dynamical RAM per process >     667.55 MB

     Estimated total dynamical RAM >       1.96 GB
     Generating pointlists ...
     new r_m :   0.1639 (alat units)  2.0799 (a.u.) for type    1
     new r_m :   0.1639 (alat units)  2.0799 (a.u.) for type    2

     Initial potential from superposition of free atoms

     starting charge   69.99738, renormalised to   70.00000

     negative rho (up, down):  1.761E-05 9.661E-03

 ==============================================================================
     atom number    1 relative position :    0.5000   0.2887   0.0000
     charge :    12.666992
     magnetization :          0.000000    0.000000   12.304368
     magnetization/charge:    0.000000    0.000000    0.971373
     polar coord.: r, theta, phi [deg] :    12.304368    0.000000  360.000000

 ==============================================================================

 ==============================================================================
     atom number    2 relative position :   -0.0000   0.5774   0.0000
     charge :    12.666992
     magnetization :          0.000000    0.000000   12.304368
     magnetization/charge:    0.000000    0.000000    0.971373
     polar coord.: r, theta, phi [deg] :    12.304368    0.000000  360.000000

 ==============================================================================

 ==============================================================================
     atom number    3 relative position :    0.3254   0.5636  -0.2277
     charge :     3.938079
     magnetization :          0.000000    0.000000    0.084788
     magnetization/charge:    0.000000    0.000000    0.021530
     polar coord.: r, theta, phi [deg] :     0.084788    0.000000  360.000000

 ==============================================================================

 ==============================================================================
     atom number    4 relative position :   -0.1746   0.3024  -0.2277
     charge :     3.938079
     magnetization :          0.000000    0.000000    0.084788
     magnetization/charge:    0.000000    0.000000    0.021530
     polar coord.: r, theta, phi [deg] :     0.084788    0.000000  360.000000

 ==============================================================================

 ==============================================================================
     atom number    5 relative position :    0.3492   0.0000  -0.2277
     charge :     3.938079
     magnetization :          0.000000    0.000000    0.084788
     magnetization/charge:    0.000000    0.000000    0.021530
     polar coord.: r, theta, phi [deg] :     0.084788    0.000000  360.000000

 ==============================================================================

 ==============================================================================
     atom number    6 relative position :    0.1746   0.3024   0.2277
     charge :     3.938079
     magnetization :          0.000000    0.000000    0.084788
     magnetization/charge:    0.000000    0.000000    0.021530
     polar coord.: r, theta, phi [deg] :     0.084788    0.000000  360.000000

 ==============================================================================

 ==============================================================================
     atom number    7 relative position :    0.6508   0.0000   0.2277
     charge :     3.938079
     magnetization :          0.000000    0.000000    0.084788
     magnetization/charge:    0.000000    0.000000    0.021530
     polar coord.: r, theta, phi [deg] :     0.084788    0.000000  360.000000

 ==============================================================================

 ==============================================================================
     atom number    8 relative position :   -0.3254   0.5636   0.2277
     charge :     3.938079
     magnetization :          0.000000    0.000000    0.084788
     magnetization/charge:    0.000000    0.000000    0.021530
     polar coord.: r, theta, phi [deg] :     0.084788    0.000000  360.000000

 ==============================================================================
     Starting wfcs are   88 randomized atomic wfcs

     total cpu time spent up to now is       77.2 secs

     Self-consistent Calculation

     iteration #  1     ecut=    70.00 Ry     beta= 0.70
     Davidson diagonalization with overlap
     ethr =  1.00E-02,  avg # of iterations =  2.0

     negative rho (up, down):  0.000E+00 1.290E-02

     total cpu time spent up to now is      266.8 secs

     total energy              =    -511.30076018 Ry
     estimated scf accuracy    <       4.80742427 Ry

     total magnetization       =    -0.00    -0.00     6.14 Bohr mag/cell
     absolute magnetization    =    10.37 Bohr mag/cell

     iteration #  2     ecut=    70.00 Ry     beta= 0.70
     Davidson diagonalization with overlap
     ethr =  6.87E-03,  avg # of iterations =  2.0

     negative rho (up, down):  0.000E+00 1.150E-02

     total cpu time spent up to now is      441.9 secs

     total energy              =    -511.54786010 Ry
     estimated scf accuracy    <       1.01895713 Ry

     total magnetization       =     0.00     0.00     6.18 Bohr mag/cell
     absolute magnetization    =    10.64 Bohr mag/cell

     iteration #  3     ecut=    70.00 Ry     beta= 0.70
     Davidson diagonalization with overlap
     ethr =  1.46E-03,  avg # of iterations =  6.7

     negative rho (up, down):  0.000E+00 2.168E-02

     total cpu time spent up to now is      707.0 secs

     total energy              =    -511.48195404 Ry
     estimated scf accuracy    <       3.68492509 Ry

     total magnetization       =     0.00     0.00     6.00 Bohr mag/cell
     absolute magnetization    =     6.76 Bohr mag/cell

     iteration #  4     ecut=    70.00 Ry     beta= 0.70
     Davidson diagonalization with overlap
     ethr =  1.46E-03,  avg # of iterations =  8.3

     negative rho (up, down):  0.000E+00 1.820E-02

     total cpu time spent up to now is      976.3 secs

     total energy              =    -512.09367232 Ry
     estimated scf accuracy    <       0.07614556 Ry

     total magnetization       =     0.00    -0.00     6.06 Bohr mag/cell
     absolute magnetization    =     8.18 Bohr mag/cell

     iteration #  5     ecut=    70.00 Ry     beta= 0.70
     Davidson diagonalization with overlap
     ethr =  1.09E-04,  avg # of iterations =  6.0

     negative rho (up, down):  0.000E+00 1.559E-02

     total cpu time spent up to now is     1240.7 secs

     total energy              =    -512.12272587 Ry
     estimated scf accuracy    <       0.09392137 Ry

     total magnetization       =     0.00     0.00     6.05 Bohr mag/cell
     absolute magnetization    =     7.67 Bohr mag/cell

     iteration #  6     ecut=    70.00 Ry     beta= 0.70
     Davidson diagonalization with overlap
     ethr =  1.09E-04,  avg # of iterations =  2.3

     negative rho (up, down):  4.521E-07 8.525E-03

     total cpu time spent up to now is     1399.4 secs

     total energy              =    -512.10494403 Ry
     estimated scf accuracy    <       0.04662642 Ry

     total magnetization       =    -0.00    -0.00     6.05 Bohr mag/cell
     absolute magnetization    =     7.52 Bohr mag/cell

     iteration #  7     ecut=    70.00 Ry     beta= 0.70
     Davidson diagonalization with overlap
     ethr =  6.66E-05,  avg # of iterations =  8.0

     negative rho (up, down):  0.000E+00 7.914E-03

     total cpu time spent up to now is     1650.4 secs

     total energy              =    -512.12318415 Ry
     estimated scf accuracy    <       0.05444951 Ry

     total magnetization       =     0.00    -0.00     6.02 Bohr mag/cell
     absolute magnetization    =     6.87 Bohr mag/cell

     iteration #  8     ecut=    70.00 Ry     beta= 0.70
     Davidson diagonalization with overlap
     ethr =  6.66E-05,  avg # of iterations =  2.3

     negative rho (up, down):  7.605E-07 8.225E-03

     total cpu time spent up to now is     1816.0 secs

     total energy              =    -512.11990487 Ry
     estimated scf accuracy    <       0.01734147 Ry

     total magnetization       =     0.00    -0.00     6.02 Bohr mag/cell
     absolute magnetization    =     6.94 Bohr mag/cell

     iteration #  9     ecut=    70.00 Ry     beta= 0.70
     Davidson diagonalization with overlap
     ethr =  2.48E-05,  avg # of iterations =  5.3

     negative rho (up, down):  9.910E-09 8.032E-03

     total cpu time spent up to now is     2090.3 secs

     total energy              =    -512.12753349 Ry
     estimated scf accuracy    <       0.00939870 Ry

     total magnetization       =    -0.00     0.00     6.02 Bohr mag/cell
     absolute magnetization    =     7.01 Bohr mag/cell

     iteration # 10     ecut=    70.00 Ry     beta= 0.70
     Davidson diagonalization with overlap
     ethr =  1.34E-05,  avg # of iterations =  1.0

     negative rho (up, down):  0.000E+00 7.850E-03

     total cpu time spent up to now is     2230.1 secs

     total energy              =    -512.12601073 Ry
     estimated scf accuracy    <       0.00718624 Ry

     total magnetization       =    -0.00     0.00     6.02 Bohr mag/cell
     absolute magnetization    =     7.01 Bohr mag/cell

     iteration # 11     ecut=    70.00 Ry     beta= 0.70
     Davidson diagonalization with overlap
     ethr =  1.03E-05,  avg # of iterations =  2.3

     negative rho (up, down):  0.000E+00 7.834E-03

     total cpu time spent up to now is     2400.9 secs

     total energy              =    -512.12645597 Ry
     estimated scf accuracy    <       0.00126497 Ry

     total magnetization       =    -0.00     0.00     6.02 Bohr mag/cell
     absolute magnetization    =     6.97 Bohr mag/cell

     iteration # 12     ecut=    70.00 Ry     beta= 0.70
     Davidson diagonalization with overlap
     ethr =  1.81E-06,  avg # of iterations =  5.7

     negative rho (up, down):  0.000E+00 7.834E-03

     total cpu time spent up to now is     2590.2 secs

     total energy              =    -512.12664043 Ry
     estimated scf accuracy    <       0.00012003 Ry

     total magnetization       =     0.00    -0.00     6.02 Bohr mag/cell
     absolute magnetization    =     6.95 Bohr mag/cell

     iteration # 13     ecut=    70.00 Ry     beta= 0.70
     Davidson diagonalization with overlap
     ethr =  1.71E-07,  avg # of iterations =  7.0

     negative rho (up, down):  0.000E+00 7.904E-03

     total cpu time spent up to now is     2843.3 secs

     total energy              =    -512.12667777 Ry
     estimated scf accuracy    <       0.00004701 Ry

     total magnetization       =     0.00     0.00     6.02 Bohr mag/cell
     absolute magnetization    =     6.94 Bohr mag/cell

     iteration # 14     ecut=    70.00 Ry     beta= 0.70
     Davidson diagonalization with overlap
     ethr =  6.72E-08,  avg # of iterations =  7.7

     negative rho (up, down):  0.000E+00 7.818E-03

     total cpu time spent up to now is     3097.3 secs

     total energy              =    -512.12670149 Ry
     estimated scf accuracy    <       0.00002689 Ry

     total magnetization       =    -0.00     0.00     6.02 Bohr mag/cell
     absolute magnetization    =     6.94 Bohr mag/cell

     iteration # 15     ecut=    70.00 Ry     beta= 0.70
     Davidson diagonalization with overlap
     ethr =  3.84E-08,  avg # of iterations =  5.7

     negative rho (up, down):  0.000E+00 7.904E-03

     total cpu time spent up to now is     3285.8 secs

     total energy              =    -512.12674813 Ry
     estimated scf accuracy    <       0.00008041 Ry

     total magnetization       =     0.00     0.00     6.02 Bohr mag/cell
     absolute magnetization    =     6.93 Bohr mag/cell

     iteration # 16     ecut=    70.00 Ry     beta= 0.70
     Davidson diagonalization with overlap
     ethr =  3.84E-08,  avg # of iterations =  9.7

     negative rho (up, down):  0.000E+00 7.904E-03

     total cpu time spent up to now is     3632.7 secs

     total energy              =    -512.12680369 Ry
     estimated scf accuracy    <       0.00076341 Ry

     total magnetization       =     0.00    -0.00     6.02 Bohr mag/cell
     absolute magnetization    =     6.93 Bohr mag/cell

     iteration # 17     ecut=    70.00 Ry     beta= 0.70
     Davidson diagonalization with overlap
     ethr =  3.84E-08,  avg # of iterations =  1.7

     negative rho (up, down):  0.000E+00 7.845E-03

     total cpu time spent up to now is     3787.7 secs

     total energy              =    -512.12689166 Ry
     estimated scf accuracy    <       0.00082274 Ry

     total magnetization       =     0.00     0.00     6.02 Bohr mag/cell
     absolute magnetization    =     6.93 Bohr mag/cell

     iteration # 18     ecut=    70.00 Ry     beta= 0.70
     Davidson diagonalization with overlap
     ethr =  3.84E-08,  avg # of iterations =  7.0

     negative rho (up, down):  0.000E+00 7.818E-03

     total cpu time spent up to now is     4112.1 secs

     total energy              =    -512.12694048 Ry
     estimated scf accuracy    <       0.00176516 Ry

     total magnetization       =    -0.00    -0.00     6.02 Bohr mag/cell
     absolute magnetization    =     6.92 Bohr mag/cell

     iteration # 19     ecut=    70.00 Ry     beta= 0.70
     Davidson diagonalization with overlap
     ethr =  3.84E-08,  avg # of iterations =  2.0

     negative rho (up, down):  0.000E+00 8.096E-03

     total cpu time spent up to now is     4271.3 secs

     total energy              =    -512.12650296 Ry
     estimated scf accuracy    <       0.00191261 Ry

     total magnetization       =    -0.00    -0.00     6.02 Bohr mag/cell
     absolute magnetization    =     6.92 Bohr mag/cell

     iteration # 20     ecut=    70.00 Ry     beta= 0.70
     Davidson diagonalization with overlap
     ethr =  3.84E-08,  avg # of iterations = 10.0

     negative rho (up, down):  0.000E+00 8.059E-03

     total cpu time spent up to now is     4736.7 secs

     total energy              =    -512.12669587 Ry
     estimated scf accuracy    <       0.00000051 Ry

     total magnetization       =    -0.00    -0.00     6.02 Bohr mag/cell
     absolute magnetization    =     6.93 Bohr mag/cell

     iteration # 21     ecut=    70.00 Ry     beta= 0.70
     Davidson diagonalization with overlap
     ethr =  7.31E-10,  avg # of iterations = 14.0

     negative rho (up, down):  0.000E+00 8.000E-03

     total cpu time spent up to now is     5401.1 secs

     total energy              =    -512.12668981 Ry
     estimated scf accuracy    <       0.00005440 Ry

     total magnetization       =     0.00    -0.00     6.02 Bohr mag/cell
     absolute magnetization    =     6.94 Bohr mag/cell

     iteration # 22     ecut=    70.00 Ry     beta= 0.70
     Davidson diagonalization with overlap
     ethr =  7.31E-10,  avg # of iterations = 11.3

     negative rho (up, down):  0.000E+00 7.989E-03

     total cpu time spent up to now is     5926.5 secs

     total energy              =    -512.12669687 Ry
     estimated scf accuracy    <       0.00000093 Ry

     total magnetization       =    -0.00    -0.00     6.02 Bohr mag/cell
     absolute magnetization    =     6.93 Bohr mag/cell

     iteration # 23     ecut=    70.00 Ry     beta= 0.70
     Davidson diagonalization with overlap
     ethr =  7.31E-10,  avg # of iterations =  1.0

     negative rho (up, down):  0.000E+00 8.011E-03

     total cpu time spent up to now is     6065.8 secs

     total energy              =    -512.12669677 Ry
     estimated scf accuracy    <       0.00000073 Ry

     total magnetization       =    -0.00    -0.00     6.02 Bohr mag/cell
     absolute magnetization    =     6.93 Bohr mag/cell

     iteration # 24     ecut=    70.00 Ry     beta= 0.70
     Davidson diagonalization with overlap
     ethr =  7.31E-10,  avg # of iterations =  2.3

     negative rho (up, down):  0.000E+00 8.011E-03

     total cpu time spent up to now is     6221.6 secs

     total energy              =    -512.12669677 Ry
     estimated scf accuracy    <       0.00000024 Ry

     total magnetization       =    -0.00     0.00     6.02 Bohr mag/cell
     absolute magnetization    =     6.93 Bohr mag/cell

     iteration # 25     ecut=    70.00 Ry     beta= 0.70
     Davidson diagonalization with overlap
     ethr =  3.37E-10,  avg # of iterations =  6.3

     negative rho (up, down):  0.000E+00 8.021E-03

 ==============================================================================
     atom number    1 relative position :    0.5000   0.2887   0.0000
     charge :    12.417841
     magnetization :         -0.000000   -0.000000    2.848222
     magnetization/charge:   -0.000000   -0.000000    0.229365
     polar coord.: r, theta, phi [deg] :     2.848222    0.000000  360.000000

 ==============================================================================

 ==============================================================================
     atom number    2 relative position :   -0.0000   0.5774   0.0000
     charge :    12.417841
     magnetization :         -0.000000   -0.000000    2.848222
     magnetization/charge:   -0.000000   -0.000000    0.229365
     polar coord.: r, theta, phi [deg] :     2.848222    0.000000  360.000000

 ==============================================================================

 ==============================================================================
     atom number    3 relative position :    0.3254   0.5636  -0.2277
     charge :     3.962130
     magnetization :          0.000439    0.000760   -0.035537
     magnetization/charge:    0.000111    0.000192   -0.008969
     polar coord.: r, theta, phi [deg] :     0.035547  178.584920   60.000000

 ==============================================================================

 ==============================================================================
     atom number    4 relative position :   -0.1746   0.3024  -0.2277
     charge :     3.962130
     magnetization :          0.000439   -0.000760   -0.035537
     magnetization/charge:    0.000111   -0.000192   -0.008969
     polar coord.: r, theta, phi [deg] :     0.035547  178.584920  -60.000000

 ==============================================================================

 ==============================================================================
     atom number    5 relative position :    0.3492   0.0000  -0.2277
     charge :     3.962130
     magnetization :         -0.000878    0.000000   -0.035537
     magnetization/charge:   -0.000222    0.000000   -0.008969
     polar coord.: r, theta, phi [deg] :     0.035547  178.584920  180.000000

 ==============================================================================

 ==============================================================================
     atom number    6 relative position :    0.1746   0.3024   0.2277
     charge :     3.962130
     magnetization :          0.000439    0.000760   -0.035537
     magnetization/charge:    0.000111    0.000192   -0.008969
     polar coord.: r, theta, phi [deg] :     0.035547  178.584920   60.000000

 ==============================================================================

 ==============================================================================
     atom number    7 relative position :    0.6508   0.0000   0.2277
     charge :     3.962130
     magnetization :         -0.000878   -0.000000   -0.035537
     magnetization/charge:   -0.000222   -0.000000   -0.008969
     polar coord.: r, theta, phi [deg] :     0.035547  178.584920 -180.000000

 ==============================================================================

 ==============================================================================
     atom number    8 relative position :   -0.3254   0.5636   0.2277
     charge :     3.962130
     magnetization :          0.000439   -0.000760   -0.035537
     magnetization/charge:    0.000111   -0.000192   -0.008969
     polar coord.: r, theta, phi [deg] :     0.035547  178.584920  -60.000000

 ==============================================================================

     total cpu time spent up to now is     6400.5 secs

     End of self-consistent calculation

          k = 0.0000 0.0000 0.0000 ( 55043 PWs)   bands (ev):

   -74.1521 -74.1517 -71.2956 -71.2951 -46.3092 -46.3054 -45.9944 -45.9931
   -45.5469 -45.5426 -43.2837 -43.2788 -42.9970 -42.9952 -42.6869 -42.6814
   -15.6325 -15.5943 -14.7628 -14.7615 -14.4017 -14.3990 -14.3976 -14.3947
   -14.3056 -14.3048 -14.3018 -14.3008  -7.2422  -6.9882  -6.7450  -6.5360
    -6.4083  -6.3966  -6.2515  -6.1898  -6.1100  -6.0569  -5.9338  -5.7143
    -5.6490  -5.6395  -5.2575  -5.2238  -5.1089  -4.9839  -4.8437  -4.7191
    -4.6270  -4.5904  -4.5049  -4.2807  -4.2474  -4.1027  -3.9003  -3.8585
    -3.5635  -3.4988  -3.2745  -3.2334  -3.0272  -2.8779  -2.8749  -2.8572
    -2.7985  -2.7976  -2.6578  -2.4660  -2.0829  -2.0112

     occupation numbers 
     1.0000   1.0000   1.0000   1.0000   1.0000   1.0000   1.0000   1.0000
     1.0000   1.0000   1.0000   1.0000   1.0000   1.0000   1.0000   1.0000
     1.0000   1.0000   1.0000   1.0000   1.0000   1.0000   1.0000   1.0000
     1.0000   1.0000   1.0000   1.0000   1.0000   1.0000   1.0000   1.0000
     1.0000   1.0000   1.0000   1.0000   1.0000   1.0000   1.0000   1.0000
     1.0000   1.0000   1.0000   1.0000   1.0000   1.0000   1.0000   1.0000
     1.0000   1.0000   1.0000   1.0000   1.0000   1.0000   1.0000   1.0000
     1.0000   1.0000   1.0000   1.0000   1.0000   1.0000   1.0000   1.0000
     1.0000   1.0000   1.0000   1.0000   1.0000   1.0000

          k = 0.0000 0.3849 0.0000 ( 55163 PWs)   bands (ev):

   -74.1521 -74.1518 -71.2955 -71.2952 -46.3084 -46.3063 -45.9941 -45.9934
   -45.5460 -45.5435 -43.2827 -43.2799 -42.9966 -42.9956 -42.6858 -42.6826
   -15.3798 -15.3461 -14.7336 -14.7199 -14.6216 -14.6213 -14.4972 -14.4943
   -14.3643 -14.3610 -14.3414 -14.3351  -7.2404  -7.0175  -6.6407  -6.4431
    -6.4019  -6.3503  -6.2697  -6.1692  -6.1074  -5.9992  -5.5787  -5.5447
    -5.4038  -5.2343  -5.1947  -5.1192  -4.9452  -4.7363  -4.7194  -4.5845
    -4.5296  -4.4652  -4.4466  -4.2694  -4.1837  -4.0275  -4.0145  -3.8690
    -3.7690  -3.7092  -3.5647  -3.3682  -3.2101  -3.1608  -3.1180  -2.9376
    -2.7975  -2.7512  -2.7131  -2.6407  -2.5093  -2.2378

     occupation numbers 
     1.0000   1.0000   1.0000   1.0000   1.0000   1.0000   1.0000   1.0000
     1.0000   1.0000   1.0000   1.0000   1.0000   1.0000   1.0000   1.0000
     1.0000   1.0000   1.0000   1.0000   1.0000   1.0000   1.0000   1.0000
     1.0000   1.0000   1.0000   1.0000   1.0000   1.0000   1.0000   1.0000
     1.0000   1.0000   1.0000   1.0000   1.0000   1.0000   1.0000   1.0000
     1.0000   1.0000   1.0000   1.0000   1.0000   1.0000   1.0000   1.0000
     1.0000   1.0000   1.0000   1.0000   1.0000   1.0000   1.0000   1.0000
     1.0000   1.0000   1.0000   1.0000   1.0000   1.0000   1.0000   1.0000
     1.0000   1.0000   1.0000   1.0000   1.0000   1.0000

          k = 0.3333 0.5774 0.0000 ( 55227 PWs)   bands (ev):

   -74.1520 -74.1520 -71.2954 -71.2954 -46.3074 -46.3074 -45.9938 -45.9938
   -45.5447 -45.5447 -43.2813 -43.2813 -42.9961 -42.9961 -42.6842 -42.6842
   -15.0246 -15.0231 -14.9985 -14.9970 -14.6698 -14.6669 -14.4548 -14.4546
   -14.4535 -14.4535 -14.3811 -14.3756  -6.7961  -6.7417  -6.5803  -6.5392
    -6.3905  -6.2369  -6.1956  -6.1691  -6.0914  -6.0564  -5.7334  -5.6370
    -5.5356  -5.5248  -5.3509  -5.2442  -5.1245  -4.8932  -4.7164  -4.5387
    -4.3450  -4.3325  -4.3125  -4.1095  -3.9703  -3.9023  -3.8941  -3.7688
    -3.7053  -3.6805  -3.4492  -3.3822  -3.3246  -3.3153  -3.1176  -3.0345
    -2.9016  -2.7732  -2.6507  -2.5630  -2.3976  -2.3915

     occupation numbers 
     1.0000   1.0000   1.0000   1.0000   1.0000   1.0000   1.0000   1.0000
     1.0000   1.0000   1.0000   1.0000   1.0000   1.0000   1.0000   1.0000
     1.0000   1.0000   1.0000   1.0000   1.0000   1.0000   1.0000   1.0000
     1.0000   1.0000   1.0000   1.0000   1.0000   1.0000   1.0000   1.0000
     1.0000   1.0000   1.0000   1.0000   1.0000   1.0000   1.0000   1.0000
     1.0000   1.0000   1.0000   1.0000   1.0000   1.0000   1.0000   1.0000
     1.0000   1.0000   1.0000   1.0000   1.0000   1.0000   1.0000   1.0000
     1.0000   1.0000   1.0000   1.0000   1.0000   1.0000   1.0000   1.0000
     1.0000   1.0000   1.0000   1.0000   1.0000   1.0000

     highest occupied level (ev):    -2.0112

!    total energy              =    -512.12669660 Ry
     estimated scf accuracy    <          4.0E-09 Ry

     The total energy is the sum of the following terms:
     one-electron contribution =   -2094.65488696 Ry
     hartree contribution      =    1049.58851865 Ry
     xc contribution           =    -100.13056455 Ry
     ewald contribution        =     633.07023626 Ry

     total magnetization       =    -0.00    -0.00     6.02 Bohr mag/cell
     absolute magnetization    =     6.93 Bohr mag/cell

     convergence has been achieved in  25 iterations

     Writing output data file ./CrI3_kx3_e70.save/

     init_run     :     71.63s CPU     76.90s WALL (       1 calls)
     electrons    :   6222.63s CPU   6323.37s WALL (       1 calls)

     Called by init_run:
     wfcinit      :     69.97s CPU     75.17s WALL (       1 calls)
     wfcinit:atom :      0.11s CPU      0.17s WALL (       3 calls)
     wfcinit:wfcr :     69.36s CPU     74.38s WALL (       3 calls)
     potinit      :      0.78s CPU      0.83s WALL (       1 calls)
     hinit0       :      0.72s CPU      0.73s WALL (       1 calls)

     Called by electrons:
     c_bands      :   5880.74s CPU   5975.12s WALL (      25 calls)
     sum_band     :    318.50s CPU    324.36s WALL (      25 calls)
     v_of_rho     :      3.43s CPU      3.48s WALL (      26 calls)
     v_h          :      1.30s CPU      1.32s WALL (      26 calls)
     v_xc         :      2.13s CPU      2.16s WALL (      26 calls)
     mix_rho      :     18.59s CPU     18.98s WALL (      25 calls)

     Called by c_bands:
     init_us_2    :      6.83s CPU      7.00s WALL (     153 calls)
     cegterg      :   5833.16s CPU   5926.94s WALL (      75 calls)

     Called by sum_band:
     sum_band:wei :      0.00s CPU      0.00s WALL (      25 calls)
     sum_band:loo :    308.69s CPU    314.36s WALL (      25 calls)
     sum_band:buf :      2.29s CPU      2.33s WALL (      75 calls)
     sum_band:ini :      3.42s CPU      3.49s WALL (      75 calls)

     Called by *egterg:
     cdiaghg      :      3.36s CPU      3.41s WALL (     488 calls)
     cegterg:over :    775.28s CPU    787.62s WALL (     413 calls)
     cegterg:upda :    414.05s CPU    420.36s WALL (     413 calls)
     cegterg:last :    772.33s CPU    784.30s WALL (     233 calls)
     h_psi        :   3683.16s CPU   3746.44s WALL (     491 calls)
     g_psi        :      3.65s CPU      3.70s WALL (     413 calls)

     Called by h_psi:
     h_psi:calbec :   1087.54s CPU   1102.75s WALL (     491 calls)
     vloc_psi     :   1624.82s CPU   1658.70s WALL (     491 calls)
     add_vuspsi   :    962.86s CPU    976.79s WALL (     491 calls)

     General routines
     calbec       :   1087.53s CPU   1102.75s WALL (     491 calls)
     fft          :      8.79s CPU      8.92s WALL (     228 calls)
     ffts         :      3.80s CPU      3.90s WALL (     100 calls)
     fftw         :   1560.34s CPU   1591.53s WALL (   81080 calls)

     Parallel routines
     fft_scatt_xy :    246.93s CPU    251.41s WALL (   81408 calls)
     fft_scatt_yz :    230.38s CPU    237.09s WALL (   81408 calls)

     PWSCF        :      1h44m CPU      1h46m WALL


   This run was terminated on:  13:48:38   2Dec2020            

=------------------------------------------------------------------------------=
   JOB DONE.
=------------------------------------------------------------------------------=
