
     Program PWSCF v.6.0 (svn rev. 13079) starts on 16Nov2017 at  9:53:45 

     This program is part of the open-source Quantum ESPRESSO suite
     for quantum simulation of materials; please cite
         "P. Giannozzi et al., J. Phys.:Condens. Matter 21 395502 (2009);
          URL http://www.quantum-espresso.org", 
     in publications or presentations arising from this work. More details at
     http://www.quantum-espresso.org/quote

     Parallel version (MPI), running on     1 processors
     Waiting for input...
     Reading input from standard input
     Message from routine read_cards :
     DEPRECATED: no units specified in ATOMIC_POSITIONS card
     Message from routine read_cards :
     ATOMIC_POSITIONS: units set to alat

     Current dimensions of program PWSCF are:
     Max number of different atomic species (ntypx) = 10
     Max number of k-points (npk) =  40000
     Max angular momentum in pseudopotentials (lmaxx) =  3

     Atomic positions and unit cell read from directory:
     ./bn.save/


     Subspace diagonalization in iterative solution of the eigenvalue problem:
     a serial algorithm will be used


     G-vector sticks info
     --------------------
     sticks:   dense  smooth     PW     G-vecs:    dense   smooth      PW
     Sum         313     313     91                18475    18475    3165



     bravais-lattice index     =            4
     lattice parameter (alat)  =       4.7177  a.u.
     unit-cell volume          =     385.5033 (a.u.)^3
     number of atoms/cell      =            2
     number of atomic types    =            2
     number of electrons       =         8.00
     number of Kohn-Sham states=           20
     kinetic-energy cutoff     =      50.0000  Ry
     charge density cutoff     =     200.0000  Ry
     Exchange-correlation      =  SLA  PZ   NOGX NOGC ( 1  1  0  0 0 0)

     celldm(1)=   4.717737  celldm(2)=   0.000000  celldm(3)=   4.239320
     celldm(4)=   0.000000  celldm(5)=   0.000000  celldm(6)=   0.000000

     crystal axes: (cart. coord. in units of alat)
               a(1) = (   1.000000   0.000000   0.000000 )  
               a(2) = (  -0.500000   0.866025   0.000000 )  
               a(3) = (   0.000000   0.000000   4.239320 )  

     reciprocal axes: (cart. coord. in units 2 pi/alat)
               b(1) = (  1.000000  0.577350 -0.000000 )  
               b(2) = (  0.000000  1.154701  0.000000 )  
               b(3) = (  0.000000 -0.000000  0.235887 )  


     PseudoPot. # 1 for B  read from file:
     ./B.pz-vbc.UPF
     MD5 check sum: b59596b5d63edeea6a2b3a0beace49c5
     Pseudo is Norm-conserving, Zval =  3.0
     Generated by new atomic code, or converted to UPF format
     Using radial grid of  157 points,  1 beta functions with: 
                l(1) =   0

     PseudoPot. # 2 for N  read from file:
     ./N.pz-vbc.UPF
     MD5 check sum: f7a51f6f78412844d17f6e69b370b417
     Pseudo is Norm-conserving, Zval =  5.0
     Generated by new atomic code, or converted to UPF format
     Using radial grid of  161 points,  1 beta functions with: 
                l(1) =   0

     atomic species   valence    mass     pseudopotential
        B              3.00     1.00000     B ( 1.00)
        N              5.00     1.00000     N ( 1.00)

     12 Sym. Ops. (no inversion) found


                                    s                        frac. trans.

      isym =  1     identity                                     

 cryst.   s( 1) = (     1          0          0      )
                  (     0          1          0      )
                  (     0          0          1      )

 cart.    s( 1) = (  1.0000000  0.0000000  0.0000000 )
                  (  0.0000000  1.0000000  0.0000000 )
                  (  0.0000000  0.0000000  1.0000000 )


      isym =  2     180 deg rotation - cart. axis [0,1,0]        

 cryst.   s( 2) = (    -1          0          0      )
                  (     1          1          0      )
                  (     0          0         -1      )

 cart.    s( 2) = ( -1.0000000  0.0000000  0.0000000 )
                  (  0.0000000  1.0000000  0.0000000 )
                  (  0.0000000  0.0000000 -1.0000000 )


      isym =  3     120 deg rotation - cryst. axis [0,0,1]       

 cryst.   s( 3) = (     0          1          0      )
                  (    -1         -1          0      )
                  (     0          0          1      )

 cart.    s( 3) = ( -0.5000000 -0.8660254  0.0000000 )
                  (  0.8660254 -0.5000000  0.0000000 )
                  (  0.0000000  0.0000000  1.0000000 )


      isym =  4     120 deg rotation - cryst. axis [0,0,-1]      

 cryst.   s( 4) = (    -1         -1          0      )
                  (     1          0          0      )
                  (     0          0          1      )

 cart.    s( 4) = ( -0.5000000  0.8660254  0.0000000 )
                  ( -0.8660254 -0.5000000  0.0000000 )
                  (  0.0000000  0.0000000  1.0000000 )


      isym =  5     180 deg rotation - cryst. axis [1,-1,0]      

 cryst.   s( 5) = (     0         -1          0      )
                  (    -1          0          0      )
                  (     0          0         -1      )

 cart.    s( 5) = (  0.5000000 -0.8660254  0.0000000 )
                  ( -0.8660254 -0.5000000  0.0000000 )
                  (  0.0000000  0.0000000 -1.0000000 )


      isym =  6     180 deg rotation - cryst. axis [2,1,0]       

 cryst.   s( 6) = (     1          1          0      )
                  (     0         -1          0      )
                  (     0          0         -1      )

 cart.    s( 6) = (  0.5000000  0.8660254  0.0000000 )
                  (  0.8660254 -0.5000000  0.0000000 )
                  (  0.0000000  0.0000000 -1.0000000 )


      isym =  7     inv. 180 deg rotation - cart. axis [0,0,1]   

 cryst.   s( 7) = (     1          0          0      )
                  (     0          1          0      )
                  (     0          0         -1      )

 cart.    s( 7) = (  1.0000000  0.0000000  0.0000000 )
                  (  0.0000000  1.0000000  0.0000000 )
                  (  0.0000000  0.0000000 -1.0000000 )


      isym =  8     inv. 180 deg rotation - cart. axis [1,0,0]   

 cryst.   s( 8) = (    -1          0          0      )
                  (     1          1          0      )
                  (     0          0          1      )

 cart.    s( 8) = ( -1.0000000  0.0000000  0.0000000 )
                  (  0.0000000  1.0000000  0.0000000 )
                  (  0.0000000  0.0000000  1.0000000 )


      isym =  9     inv.  60 deg rotation - cryst. axis [0,0,1]  

 cryst.   s( 9) = (    -1         -1          0      )
                  (     1          0          0      )
                  (     0          0         -1      )

 cart.    s( 9) = ( -0.5000000  0.8660254  0.0000000 )
                  ( -0.8660254 -0.5000000  0.0000000 )
                  (  0.0000000  0.0000000 -1.0000000 )


      isym = 10     inv.  60 deg rotation - cryst. axis [0,0,-1] 

 cryst.   s(10) = (     0          1          0      )
                  (    -1         -1          0      )
                  (     0          0         -1      )

 cart.    s(10) = ( -0.5000000 -0.8660254  0.0000000 )
                  (  0.8660254 -0.5000000  0.0000000 )
                  (  0.0000000  0.0000000 -1.0000000 )


      isym = 11     inv. 180 deg rotation - cryst. axis [0,1,0]  

 cryst.   s(11) = (     1          1          0      )
                  (     0         -1          0      )
                  (     0          0          1      )

 cart.    s(11) = (  0.5000000  0.8660254  0.0000000 )
                  (  0.8660254 -0.5000000  0.0000000 )
                  (  0.0000000  0.0000000  1.0000000 )


      isym = 12     inv. 180 deg rotation - cryst. axis [1,1,0]  

 cryst.   s(12) = (     0         -1          0      )
                  (    -1          0          0      )
                  (     0          0          1      )

 cart.    s(12) = (  0.5000000 -0.8660254  0.0000000 )
                  ( -0.8660254 -0.5000000  0.0000000 )
                  (  0.0000000  0.0000000  1.0000000 )


     point group D_3h (-62m)
     there are  6 classes
     the character table:

       E     2C3   3C2   s_h   2S3   3s_v 
A'_1   1.00  1.00  1.00  1.00  1.00  1.00
A'_2   1.00  1.00 -1.00  1.00  1.00 -1.00
E'     2.00 -1.00  0.00  2.00 -1.00  0.00
A''1   1.00  1.00  1.00 -1.00 -1.00 -1.00
A''2   1.00  1.00 -1.00 -1.00 -1.00  1.00
E''    2.00 -1.00  0.00 -2.00  1.00  0.00

     the symmetry operations in each class and the name of the first element:

     E        1
          identity                                               
     2C3      3    4
          120 deg rotation - cryst. axis [0,0,1]                 
     3C2      2    6    5
          180 deg rotation - cart. axis [0,1,0]                  
     s_h      7
          inv. 180 deg rotation - cart. axis [0,0,1]             
     2S3      9   10
          inv.  60 deg rotation - cryst. axis [0,0,1]            
     3s_v     8   11   12
          inv. 180 deg rotation - cart. axis [1,0,0]             

   Cartesian axes

     site n.     atom                  positions (alat units)
         1           B   tau(   1) = (   0.5000000   0.2886751   0.0000000  )
         2           N   tau(   2) = (  -0.5000000  -0.2886751   0.0000000  )

   Crystallographic axes

     site n.     atom                  positions (cryst. coord.)
         1           B   tau(   1) = (  0.6666667  0.3333333  0.0000000  )
         2           N   tau(   2) = ( -0.6666667 -0.3333333  0.0000000  )

     number of k points=    14
                       cart. coord. in units 2pi/alat
        k(    1) = (   0.0000000   0.0000000   0.0000000), wk =   0.0200000
        k(    2) = (   0.0000000   0.1154701   0.0000000), wk =   0.1200000
        k(    3) = (   0.0000000   0.2309401   0.0000000), wk =   0.1200000
        k(    4) = (   0.0000000   0.3464102   0.0000000), wk =   0.1200000
        k(    5) = (   0.0000000   0.4618802   0.0000000), wk =   0.1200000
        k(    6) = (   0.0000000  -0.5773503   0.0000000), wk =   0.0600000
        k(    7) = (   0.1000000   0.1732051   0.0000000), wk =   0.1200000
        k(    8) = (   0.1000000   0.2886751   0.0000000), wk =   0.2400000
        k(    9) = (   0.1000000   0.4041452   0.0000000), wk =   0.2400000
        k(   10) = (   0.1000000   0.5196152   0.0000000), wk =   0.2400000
        k(   11) = (   0.2000000   0.3464102   0.0000000), wk =   0.1200000
        k(   12) = (   0.2000000   0.4618802   0.0000000), wk =   0.2400000
        k(   13) = (   0.2000000   0.5773503   0.0000000), wk =   0.1200000
        k(   14) = (   0.3000000   0.5196152   0.0000000), wk =   0.1200000

                       cryst. coord.
        k(    1) = (   0.0000000   0.0000000   0.0000000), wk =   0.0200000
        k(    2) = (   0.0000000   0.1000000   0.0000000), wk =   0.1200000
        k(    3) = (   0.0000000   0.2000000   0.0000000), wk =   0.1200000
        k(    4) = (   0.0000000   0.3000000   0.0000000), wk =   0.1200000
        k(    5) = (   0.0000000   0.4000000   0.0000000), wk =   0.1200000
        k(    6) = (   0.0000000  -0.5000000   0.0000000), wk =   0.0600000
        k(    7) = (   0.1000000   0.1000000   0.0000000), wk =   0.1200000
        k(    8) = (   0.1000000   0.2000000   0.0000000), wk =   0.2400000
        k(    9) = (   0.1000000   0.3000000   0.0000000), wk =   0.2400000
        k(   10) = (   0.1000000   0.4000000   0.0000000), wk =   0.2400000
        k(   11) = (   0.2000000   0.2000000   0.0000000), wk =   0.1200000
        k(   12) = (   0.2000000   0.3000000   0.0000000), wk =   0.2400000
        k(   13) = (   0.2000000   0.4000000   0.0000000), wk =   0.1200000
        k(   14) = (   0.3000000   0.3000000   0.0000000), wk =   0.1200000

     Dense  grid:    18475 G-vectors     FFT dimensions: (  24,  24,  96)

     Estimated max dynamical RAM per process >      10.04Mb

     The potential is recalculated from file :
     ./bn.save/charge-density.dat

     Starting wfc are    8 randomized atomic wfcs +   12 random wfc

     Band Structure Calculation
     Davidson diagonalization with overlap

     Computing kpt #:     1
     total cpu time spent up to now is        0.7 secs

     Computing kpt #:     2
     total cpu time spent up to now is        1.2 secs

     Computing kpt #:     3
     total cpu time spent up to now is        1.7 secs

     Computing kpt #:     4
     total cpu time spent up to now is        2.3 secs

     Computing kpt #:     5
     total cpu time spent up to now is        2.9 secs

     Computing kpt #:     6
     total cpu time spent up to now is        3.4 secs

     Computing kpt #:     7
     total cpu time spent up to now is        4.0 secs

     Computing kpt #:     8
     total cpu time spent up to now is        4.6 secs

     Computing kpt #:     9
     total cpu time spent up to now is        5.2 secs

     Computing kpt #:    10
     total cpu time spent up to now is        5.8 secs

     Computing kpt #:    11
     total cpu time spent up to now is        6.4 secs

     Computing kpt #:    12
     total cpu time spent up to now is        7.0 secs

     Computing kpt #:    13
     total cpu time spent up to now is        7.6 secs

     Computing kpt #:    14
     total cpu time spent up to now is        8.2 secs

     ethr =  1.00E-06,  avg # of iterations = 13.5

     total cpu time spent up to now is        8.2 secs

     End of band structure calculation

          k = 0.0000 0.0000 0.0000 (  2301 PWs)   bands (ev):

   -20.4914  -8.1151  -4.0956  -4.0956   1.9482   3.5859   4.3883   8.1517
     8.8202   8.8202   9.1588  11.3249  12.4434  17.4889  19.7621  22.5639
    26.8074  27.1100  27.1100  30.0281

     occupation numbers 
     1.0000   1.0000   1.0000   1.0000   0.0000   0.0000   0.0000   0.0000
     0.0000   0.0000   0.0000   0.0000   0.0000   0.0000   0.0000   0.0000
     0.0000   0.0000   0.0000   0.0000

          k = 0.0000 0.1155 0.0000 (  2317 PWs)   bands (ev):

   -20.2998  -7.8586  -4.8916  -4.4703   2.2801   3.8708   4.7162   8.1920
     8.5913   9.6824   9.6912  10.9424  12.9475  17.5892  20.1361  23.0423
    24.1729  25.3875  27.3097  28.1949

     occupation numbers 
     1.0000   1.0000   1.0000   1.0000   0.0000   0.0000   0.0000   0.0000
     0.0000   0.0000   0.0000   0.0000   0.0000   0.0000   0.0000   0.0000
     0.0000   0.0000   0.0000   0.0000

          k = 0.0000 0.2309 0.0000 (  2319 PWs)   bands (ev):

   -19.7384  -7.0846  -6.7780  -5.3146   3.2271   4.6637   5.6503   7.6863
     8.2814  10.6977  10.9072  11.9365  14.1597  17.7370  20.9806  21.1177
    22.5822  23.3033  24.4567  25.1460

     occupation numbers 
     1.0000   1.0000   1.0000   1.0000   0.0000   0.0000   0.0000   0.0000
     0.0000   0.0000   0.0000   0.0000   0.0000   0.0000   0.0000   0.0000
     0.0000   0.0000   0.0000   0.0000

          k = 0.0000 0.3464 0.0000 (  2301 PWs)   bands (ev):

   -18.8731  -8.9584  -6.1623  -5.8770   4.7233   4.8572   7.0057   7.0408
     8.2459  11.6513  12.5406  14.9602  15.2258  16.7702  18.4979  19.6162
    20.5808  21.7533  21.8411  22.6562

     occupation numbers 
     1.0000   1.0000   1.0000   1.0000   0.0000   0.0000   0.0000   0.0000
     0.0000   0.0000   0.0000   0.0000   0.0000   0.0000   0.0000   0.0000
     0.0000   0.0000   0.0000   0.0000

          k = 0.0000 0.4619 0.0000 (  2315 PWs)   bands (ev):

   -17.9032 -10.8581  -6.7589  -4.4580   3.0030   6.4423   7.9114   8.7544
     9.6981  12.9093  12.9852  14.7834  14.8573  15.8288  17.6428  17.9014
    18.8610  20.8131  21.0218  22.5792

     occupation numbers 
     1.0000   1.0000   1.0000   1.0000   0.0000   0.0000   0.0000   0.0000
     0.0000   0.0000   0.0000   0.0000   0.0000   0.0000   0.0000   0.0000
     0.0000   0.0000   0.0000   0.0000

          k = 0.0000-0.5774 0.0000 (  2292 PWs)   bands (ev):

   -17.3955 -11.6880  -6.9583  -3.6307   1.9282   6.9653   9.7471  10.2568
    10.8085  11.8032  12.2046  12.5867  14.7434  16.6617  16.8362  18.2161
    19.3198  19.8877  20.4989  21.6468

     occupation numbers 
     1.0000   1.0000   1.0000   1.0000   0.0000   0.0000   0.0000   0.0000
     0.0000   0.0000   0.0000   0.0000   0.0000   0.0000   0.0000   0.0000
     0.0000   0.0000   0.0000   0.0000

          k = 0.1000 0.1732 0.0000 (  2317 PWs)   bands (ev):

   -19.9226  -7.3387  -6.1019  -5.2141   2.9223   4.4188   5.3562   7.9658
     8.7697   9.9496  10.6544  11.2962  13.9247  17.7012  20.7687  21.3283
    23.5523  24.3371  25.4735  26.4075

     occupation numbers 
     1.0000   1.0000   1.0000   1.0000   0.0000   0.0000   0.0000   0.0000
     0.0000   0.0000   0.0000   0.0000   0.0000   0.0000   0.0000   0.0000
     0.0000   0.0000   0.0000   0.0000

          k = 0.1000 0.2887 0.0000 (  2306 PWs)   bands (ev):

   -19.2043  -7.9687  -6.3424  -6.2217   4.1646   5.1356   6.5860   7.0375
     8.8582  11.1925  11.2971  13.1978  15.6865  16.8381  19.9615  20.5005
    21.9064  21.9992  22.9478  23.6524

     occupation numbers 
     1.0000   1.0000   1.0000   1.0000   0.0000   0.0000   0.0000   0.0000
     0.0000   0.0000   0.0000   0.0000   0.0000   0.0000   0.0000   0.0000
     0.0000   0.0000   0.0000   0.0000

          k = 0.1000 0.4041 0.0000 (  2296 PWs)   bands (ev):

   -18.2595  -9.9489  -7.0196  -4.9938   3.9275   5.9306   7.9178   8.0827
     9.1315  12.3647  13.0470  14.9346  15.2960  16.3146  17.7233  18.1424
    19.5787  20.9591  22.2655  22.3300

     occupation numbers 
     1.0000   1.0000   1.0000   1.0000   0.0000   0.0000   0.0000   0.0000
     0.0000   0.0000   0.0000   0.0000   0.0000   0.0000   0.0000   0.0000
     0.0000   0.0000   0.0000   0.0000

          k = 0.1000 0.5196 0.0000 (  2306 PWs)   bands (ev):

   -17.4377 -11.3639  -7.4541  -3.7296   2.2517   7.5695   9.0783  10.0035
    11.0673  11.8044  12.4713  14.0693  14.4510  16.1979  16.6642  17.9279
    19.2904  19.3036  21.8837  22.0521

     occupation numbers 
     1.0000   1.0000   1.0000   1.0000   0.0000   0.0000   0.0000   0.0000
     0.0000   0.0000   0.0000   0.0000   0.0000   0.0000   0.0000   0.0000
     0.0000   0.0000   0.0000   0.0000

          k = 0.2000 0.3464 0.0000 (  2295 PWs)   bands (ev):

   -18.3903  -9.2949  -7.5292  -5.1880   4.3793   5.7137   7.6490   8.1496
    10.2154  11.6439  12.0146  14.5149  14.9673  17.3071  19.1259  19.4765
    19.6321  20.6623  21.4043  21.5091

     occupation numbers 
     1.0000   1.0000   1.0000   1.0000   0.0000   0.0000   0.0000   0.0000
     0.0000   0.0000   0.0000   0.0000   0.0000   0.0000   0.0000   0.0000
     0.0000   0.0000   0.0000   0.0000

          k = 0.2000 0.4619 0.0000 (  2292 PWs)   bands (ev):

   -17.5024 -10.6242  -8.4274  -3.8587   2.8306   7.7749   9.2939  10.0034
    10.8311  11.9638  12.8625  15.1825  15.2752  16.3218  16.7876  17.0579
    18.3085  19.4524  19.9145  21.0285

     occupation numbers 
     1.0000   1.0000   1.0000   1.0000   0.0000   0.0000   0.0000   0.0000
     0.0000   0.0000   0.0000   0.0000   0.0000   0.0000   0.0000   0.0000
     0.0000   0.0000   0.0000   0.0000

          k = 0.2000 0.5774 0.0000 (  2290 PWs)   bands (ev):

   -17.0550 -11.2680  -8.7122  -3.1191   1.9751   9.4358  10.1251  10.5491
    11.4872  12.5266  12.9845  13.5296  13.9419  16.3624  17.2837  17.2848
    18.1534  18.3451  19.4106  20.1614

     occupation numbers 
     1.0000   1.0000   1.0000   1.0000   0.0000   0.0000   0.0000   0.0000
     0.0000   0.0000   0.0000   0.0000   0.0000   0.0000   0.0000   0.0000
     0.0000   0.0000   0.0000   0.0000

          k = 0.3000 0.5196 0.0000 (  2301 PWs)   bands (ev):

   -16.9137 -10.8776  -9.5756  -2.8943   1.9878   9.5411   9.9642  11.5036
    12.5133  12.7348  13.3508  14.8316  15.1204  15.1885  16.2063  16.2328
    17.2338  17.7865  17.9811  20.2188

     occupation numbers 
     1.0000   1.0000   1.0000   1.0000   0.0000   0.0000   0.0000   0.0000
     0.0000   0.0000   0.0000   0.0000   0.0000   0.0000   0.0000   0.0000
     0.0000   0.0000   0.0000   0.0000

     highest occupied, lowest unoccupied level (ev):    -2.8943    1.9282

     Writing output data file bn.save

     init_run     :      0.06s CPU      0.07s WALL (       1 calls)
     electrons    :      8.01s CPU      8.05s WALL (       1 calls)

     Called by init_run:
     wfcinit      :      0.00s CPU      0.00s WALL (       1 calls)
     wfcinit:atom :      0.01s CPU      0.01s WALL (      14 calls)
     wfcinit:wfcr :      0.60s CPU      0.60s WALL (      14 calls)
     potinit      :      0.01s CPU      0.02s WALL (       1 calls)

     Called by electrons:
     c_bands      :      8.01s CPU      8.05s WALL (       1 calls)
     v_of_rho     :      0.01s CPU      0.01s WALL (       1 calls)
     v_h          :      0.00s CPU      0.00s WALL (       1 calls)
     v_xc         :      0.00s CPU      0.01s WALL (       1 calls)

     Called by c_bands:
     init_us_2    :      0.00s CPU      0.00s WALL (      14 calls)
     cegterg      :      7.35s CPU      7.38s WALL (      14 calls)

     Called by sum_band:

     Called by *egterg:
     h_psi        :      5.03s CPU      5.04s WALL (     217 calls)
     g_psi        :      0.02s CPU      0.03s WALL (     189 calls)
     cdiaghg      :      0.30s CPU      0.32s WALL (     203 calls)
     cegterg:over :      1.14s CPU      1.13s WALL (     189 calls)
     cegterg:upda :      0.73s CPU      0.73s WALL (     189 calls)
     cegterg:last :      0.58s CPU      0.58s WALL (      42 calls)

     Called by h_psi:
     h_psi:pot    :      5.01s CPU      5.01s WALL (     217 calls)
     h_psi:calbec :      0.06s CPU      0.03s WALL (     217 calls)
     vloc_psi     :      4.93s CPU      4.94s WALL (     217 calls)
     add_vuspsi   :      0.02s CPU      0.03s WALL (     217 calls)

     General routines
     calbec       :      0.06s CPU      0.03s WALL (     217 calls)
     fft          :      0.01s CPU      0.01s WALL (       3 calls)
     fftw         :      4.51s CPU      4.53s WALL (    5270 calls)
     davcio       :      0.01s CPU      0.01s WALL (      28 calls)

     Parallel routines
     fft_scatter  :      0.32s CPU      0.34s WALL (    5273 calls)

     PWSCF        :     8.22s CPU         8.28s WALL


   This run was terminated on:   9:53:53  16Nov2017            

=------------------------------------------------------------------------------=
   JOB DONE.
=------------------------------------------------------------------------------=
