
.Version 7.4.1 of ABINIT 
.(MPI version, prepared for a x86_64_linux_gnu5.4 computer) 

.Copyright (C) 1998-2013 ABINIT group . 
 ABINIT comes with ABSOLUTELY NO WARRANTY.
 It is free software, and you are welcome to redistribute it
 under certain conditions (GNU General Public License,
 see ~abinit/COPYING or http://www.gnu.org/copyleft/gpl.txt).

 ABINIT is a project of the Universite Catholique de Louvain,
 Corning Inc. and other collaborators, see ~abinit/doc/developers/contributors.txt .
 Please read ~abinit/doc/users/acknowledgments.html for suggested
 acknowledgments of the ABINIT effort.
 For more information, see http://www.abinit.org .

.Starting date : Tue 24 Jul 2018.
- ( at 08h59 )
  

 herald :  WARNING -
  The starting date is more than 3 years after the initial release
  of this version of ABINIT, namely Aug 2013.
  This version of ABINIT is not supported anymore.
  Action : please, switch to a more recent version of ABINIT.
- input  file    -> 0D_H2.in
- output file    -> 0D_H2.outA
- root for input  files -> 0D_H2_i
- root for output files -> 0D_H2_o


 DATASET    1 : space group P4/m m m (#123); Bravais tP (primitive tetrag.)
================================================================================
 Values of the parameters that define the memory need for DATASET  1.
   intxc =         0  ionmov =         0    iscf =         3 xclevel =         1
  lmnmax =         1   lnmax =         1   mband =         4  mffmem =         1
P  mgfft =        54   mkmem =         1 mpssoang=         1     mpw =      4193
  mqgrid =      3001   natom =         2    nfft =    157464    nkpt =         1
  nloalg =         4  nspden =         1 nspinor =         1  nsppol =         1
    nsym =        16  n1xccc =         0  ntypat =         1  occopt =         1
================================================================================
P This job should need less than                      29.733 Mbytes of memory.
  Rough estimation (10% accuracy) of disk space for files :
_ WF disk file :      0.258 Mbytes ; DEN or POT disk file :      1.203 Mbytes.
================================================================================


 DATASET    2 : space group P4/m m m (#123); Bravais tP (primitive tetrag.)
================================================================================
 Values of the parameters that define the memory need for DATASET  2.
   intxc =         0  ionmov =         0    iscf =        -2 xclevel =         1
  lmnmax =         1   lnmax =         1   mband =        50  mffmem =         1
P  mgfft =        54   mkmem =         1 mpssoang=         1     mpw =      8385
  mqgrid =      3001   natom =         2    nfft =    157464    nkpt =         1
  nloalg =         4  nspden =         1 nspinor =         1  nsppol =         1
    nsym =         8  n1xccc =         0  ntypat =         1  occopt =         1
================================================================================
P This job should need less than                      32.419 Mbytes of memory.
  Rough estimation (10% accuracy) of disk space for files :
_ WF disk file :      6.399 Mbytes ; DEN or POT disk file :      1.203 Mbytes.
================================================================================

--------------------------------------------------------------------------------
------------- Echo of variables that govern the present computation ------------
--------------------------------------------------------------------------------
-
- outvars: echo of selected default values                                      
-   accesswff0 =  0 , fftalg0 =112 , wfoptalg0 =  0
-
- outvars: echo of global parameters not present in the input file              
-  max_nthreads =    0
-
 -outvars: echo values of preprocessed input variables --------
            acell      1.5000000000E+01  1.5000000000E+01  1.5000000000E+01 Bohr
              amu      1.00794000E+00
             ecut      1.40000000E+01 Hartree
           getden1          0
           getden2          1
           getwfk1          0
           getwfk2          1
             iscf1          3
             iscf2         -2
           istwfk1       2
           istwfk2       1
           jdtset        1    2
         kptrlatt        1    0    0      0    1    0      0    0    1
          kptrlen      1.50000000E+04
          kssform1          1
          kssform2          3
P           mkmem           1
            natom           2
            nband1          4
            nband2         50
         nbandkss1          0
         nbandkss2         50
           nbdbuf1          0
           nbdbuf2          2
           ndtset           2
            ngfft          54      54      54
             nkpt           1
            nstep1       1000
            nstep2       3000
             nsym1         16
             nsym2          8
           ntypat           1
              occ      2.000000  0.000000  0.000000  0.000000
          spgroup         123
           symafm1       1    1    1    1    1    1    1    1    1    1
                         1    1    1    1    1    1
           symafm2       1    1    1    1    1    1    1    1
        symmorphi1          1
        symmorphi2          0
           symrel1     1  0  0   0  1  0   0  0  1      -1  0  0   0 -1  0   0  0 -1
                      -1  0  0   0  1  0   0  0 -1       1  0  0   0 -1  0   0  0  1
                      -1  0  0   0 -1  0   0  0  1       1  0  0   0  1  0   0  0 -1
                       1  0  0   0 -1  0   0  0 -1      -1  0  0   0  1  0   0  0  1
                       1  0  0   0  0  1   0  1  0      -1  0  0   0  0 -1   0 -1  0
                      -1  0  0   0  0  1   0 -1  0       1  0  0   0  0 -1   0  1  0
                      -1  0  0   0  0 -1   0  1  0       1  0  0   0  0  1   0 -1  0
                       1  0  0   0  0 -1   0 -1  0      -1  0  0   0  0  1   0  1  0
           symrel2     1  0  0   0  1  0   0  0  1       1  0  0   0 -1  0   0  0  1
                       1  0  0   0  1  0   0  0 -1       1  0  0   0 -1  0   0  0 -1
                       1  0  0   0  0  1   0  1  0       1  0  0   0  0 -1   0  1  0
                       1  0  0   0  0  1   0 -1  0       1  0  0   0  0 -1   0 -1  0
            tnons1     0.0000000  0.0000000  0.0000000    -0.2000000  0.0000000  0.0000000
                      -0.2000000  0.0000000  0.0000000     0.0000000  0.0000000  0.0000000
                      -0.2000000  0.0000000  0.0000000     0.0000000  0.0000000  0.0000000
                       0.0000000  0.0000000  0.0000000    -0.2000000  0.0000000  0.0000000
                       0.0000000  0.0000000  0.0000000    -0.2000000  0.0000000  0.0000000
                      -0.2000000  0.0000000  0.0000000     0.0000000  0.0000000  0.0000000
                      -0.2000000  0.0000000  0.0000000     0.0000000  0.0000000  0.0000000
                       0.0000000  0.0000000  0.0000000    -0.2000000  0.0000000  0.0000000
            tnons2     0.0000000  0.0000000  0.0000000     0.0000000  0.0000000  0.0000000
                       0.0000000  0.0000000  0.0000000     0.0000000  0.0000000  0.0000000
                       0.0000000  0.0000000  0.0000000     0.0000000  0.0000000  0.0000000
                       0.0000000  0.0000000  0.0000000     0.0000000  0.0000000  0.0000000
           toldfe1     1.00000000E-12 Hartree
           toldfe2     0.00000000E+00 Hartree
           tolwfr1     0.00000000E+00
           tolwfr2     1.00000000E-10
            typat      1  1
           xangst      3.4396518558E+00  3.9688290644E+00  3.9688290644E+00
                       2.9104746472E+00  3.9688290644E+00  3.9688290644E+00
            xcart      6.5000000000E+00  7.5000000000E+00  7.5000000000E+00
                       5.5000000000E+00  7.5000000000E+00  7.5000000000E+00
             xred      4.3333333333E-01  5.0000000000E-01  5.0000000000E-01
                       3.6666666667E-01  5.0000000000E-01  5.0000000000E-01
            znucl        1.00000

================================================================================

 chkinp: Checking input parameters for consistency, jdtset=   1.

 chkinp: Checking input parameters for consistency, jdtset=   2.

================================================================================
== DATASET  1 ==================================================================
-   nproc =    1

 Exchange-correlation functional for the present dataset will be:
  LDA: new Teter (4/93) with spin-polarized option - ixc=1
 Citation for XC functional:
  S. Goedecker, M. Teter, J. Huetter, PRB 54, 1703 (1996)

 Real(R)+Recip(G) space primitive vectors, cartesian coordinates (Bohr,Bohr^-1):
 R(1)= 15.0000000  0.0000000  0.0000000  G(1)=  0.0666667  0.0000000  0.0000000
 R(2)=  0.0000000 15.0000000  0.0000000  G(2)=  0.0000000  0.0666667  0.0000000
 R(3)=  0.0000000  0.0000000 15.0000000  G(3)=  0.0000000  0.0000000  0.0666667
 Unit cell volume ucvol=  3.3750000E+03 bohr^3
 Angles (23,13,12)=  9.00000000E+01  9.00000000E+01  9.00000000E+01 degrees

 getcut: wavevector=  0.0000  0.0000  0.0000  ngfft=  54  54  54
         ecut(hartree)=     14.000   => boxcut(ratio)=   2.13734

--- Pseudopotential description ------------------------------------------------
- pspini: atom type   1  psp file is 1h.pspnc
- pspatm: opening atomic psp file    1h.pspnc
-  Troullier-Martins psp for element  H         Thu Oct 27 17:28:54 EDT 1994
-  1.00000   1.00000    940714                znucl, zion, pspdat
    1    1    0    0      2001   0.00000      pspcod,pspxc,lmax,lloc,mmax,r2well
    0   7.740  11.990    0   1.5855604        l,e99.0,e99.9,nproj,rcpsp
   0.00000000   0.00000000   0.00000000   0.00000000     rms, ekb1, ekb2, epsatm
    0.00000000000000    0.00000000000000    0.00000000000000   rchrg,fchrg,qchrg
 Note: local psp for atom with Z=  1.0
 pspatm: epsatm=    0.04198703
         --- l  ekb(1:nproj) -->
 pspatm: atomic psp has been read  and splines computed

   1.67948119E-01                                ecore*ucvol(ha*bohr**3)
--------------------------------------------------------------------------------

P newkpt: treating      4 bands with npw=    4193 for ikpt=   1 by node    0

_setup2: Arith. and geom. avg. npw (full set) are    8385.000    8385.000

================================================================================

     iter   Etot(hartree)      deltaE(h)  residm     vres2
 ETOT  1  -1.0724451300708    -1.072E+00 1.402E-02 3.853E+01
 ETOT  2  -1.0913349605448    -1.889E-02 1.525E-07 1.135E+01
 ETOT  3  -1.0914078944360    -7.293E-05 3.442E-07 5.630E+00
 ETOT  4  -1.0914587265831    -5.083E-05 1.866E-06 2.621E+00
 ETOT  5  -1.0914584296508     2.969E-07 1.581E-08 1.465E+00
 ETOT  6  -1.0914581207928     3.089E-07 4.327E-08 6.267E-01
 ETOT  7  -1.0914587911189    -6.703E-07 5.924E-08 1.312E-01
 ETOT  8  -1.0914591399667    -3.488E-07 3.519E-08 5.786E-03
 ETOT  9  -1.0914591959605    -5.599E-08 1.744E-09 1.844E-03
 ETOT 10  -1.0914592049758    -9.015E-09 4.410E-10 2.157E-03
 ETOT 11  -1.0914592048280     1.478E-10 1.996E-11 1.658E-03
 ETOT 12  -1.0914592043341     4.939E-10 9.108E-12 8.791E-04
 ETOT 13  -1.0914592044682    -1.340E-10 2.537E-11 3.926E-04
 ETOT 14  -1.0914592048507    -3.825E-10 6.373E-11 4.490E-05
 ETOT 15  -1.0914592049928    -1.421E-10 1.048E-11 7.058E-06
 ETOT 16  -1.0914592050318    -3.902E-11 2.874E-12 5.342E-06
 ETOT 17  -1.0914592050339    -2.104E-12 1.197E-13 4.518E-06
 ETOT 18  -1.0914592050330     9.290E-13 5.256E-14 3.038E-06
 ETOT 19  -1.0914592050326     4.108E-13 2.396E-14 1.771E-06

 At SCF step   19, etot is converged : 
  for the second time, diff in etot=  4.108E-13 < toldfe=  1.000E-12

 Cartesian components of stress tensor (hartree/bohr^3)
  sigma(1 1)= -9.70487306E-05  sigma(3 2)=  0.00000000E+00
  sigma(2 2)=  1.37879553E-06  sigma(3 1)=  0.00000000E+00
  sigma(3 3)=  1.37879553E-06  sigma(2 1)=  0.00000000E+00

================================================================================

 ----iterations are completed or convergence reached----

 Mean square residual over all n,k,spin=   8.5619E-15; max=  2.3956E-14
   0.0000  0.0000  0.0000    1  2.39555E-14 kpt; spin; max resid(k); each band:
  3.43E-16 2.71E-15 7.24E-15 2.40E-14
 reduced coordinates (array xred) for    2 atoms
       0.433333333333      0.500000000000      0.500000000000
       0.366666666667      0.500000000000      0.500000000000
 rms dE/dt=  2.8478E+00; max dE/dt=  4.9326E+00; dE/dt below (all hartree)
    1      -4.932598135562      0.000000000000      0.000000000000
    2       4.932598135562      0.000000000000      0.000000000000

 cartesian coordinates (angstrom) at end:
    1      3.43965185583500     3.96882906442500     3.96882906442500
    2      2.91047464724500     3.96882906442500     3.96882906442500

 cartesian forces (hartree/bohr) at end:
    1      0.32883987570413    -0.00000000000000    -0.00000000000000
    2     -0.32883987570413    -0.00000000000000    -0.00000000000000
 frms,max,avg= 1.8985579E-01 3.2883988E-01   0.000E+00  0.000E+00  0.000E+00 h/b

 cartesian forces (eV/Angstrom) at end:
    1     16.90962486858101    -0.00000000000000    -0.00000000000000
    2    -16.90962486858101    -0.00000000000000    -0.00000000000000
 frms,max,avg= 9.7627765E+00 1.6909625E+01   0.000E+00  0.000E+00  0.000E+00 e/A
 length scales= 15.000000000000 15.000000000000 15.000000000000 bohr
              =  7.937658128850  7.937658128850  7.937658128850 angstroms
 prteigrs : about to open file 0D_H2_o_DS1_EIG
 Fermi (or HOMO) energy (hartree) =  -0.42285   Average Vxc (hartree)=  -0.02187
 Eigenvalues (hartree) for nkpt=   1  k points:
 kpt#   1, nband=  4, wtk=  1.00000, kpt=  0.0000  0.0000  0.0000 (reduced coord)
  -0.42285  -0.00694   0.05000   0.05986
 Total charge density [el/Bohr^3]
,     Maximum=    4.5127E-01  at reduced coord.    0.4074    0.5000    0.5000
,Next maximum=    4.4301E-01  at reduced coord.    0.3889    0.5000    0.5000
,     Minimum=    6.4280E-13  at reduced coord.    0.1481    0.0000    0.0000
,Next minimum=    2.7143E-14  at reduced coord.    0.6111    0.0000    0.0000
,  Integrated=    2.0000E+00

--------------------------------------------------------------------------------
 Components of total free energy (in Hartree) :

    Kinetic energy  =  1.30797137212635E+00
    Hartree energy  =  1.09084195734546E+00
    XC energy       = -7.24812590095703E-01
    Ewald energy    =  6.22318327492876E-01
    PspCore energy  =  4.97624057464341E-05
    Loc. psp. energy= -3.38782803430733E+00
    NL   psp  energy=  0.00000000000000E+00
    >>>>>>>>> Etotal= -1.09145920503261E+00

 Other information on the energy :
    Total energy(eV)= -2.97001153956728E+01 ; Band energy (Ha)=  -8.4569551804E-01
--------------------------------------------------------------------------------

 Cartesian components of stress tensor (hartree/bohr^3)
  sigma(1 1)= -9.70487306E-05  sigma(3 2)=  0.00000000E+00
  sigma(2 2)=  1.37879553E-06  sigma(3 1)=  0.00000000E+00
  sigma(3 3)=  1.37879553E-06  sigma(2 1)=  0.00000000E+00

-Cartesian components of stress tensor (GPa)         [Pressure=  9.2471E-01 GPa]
- sigma(1 1)= -2.85527175E+00  sigma(3 2)=  0.00000000E+00
- sigma(2 2)=  4.05655580E-02  sigma(3 1)=  0.00000000E+00
- sigma(3 3)=  4.05655580E-02  sigma(2 1)=  0.00000000E+00

================================================================================
== DATASET  2 ==================================================================
-   nproc =    1

 mkfilename : getwfk/=0, take file _WFK from output of DATASET   1.

 mkfilename : getden/=0, take file _DEN from output of DATASET   1.

 Exchange-correlation functional for the present dataset will be:
  LDA: new Teter (4/93) with spin-polarized option - ixc=1
 Citation for XC functional:
  S. Goedecker, M. Teter, J. Huetter, PRB 54, 1703 (1996)

 Real(R)+Recip(G) space primitive vectors, cartesian coordinates (Bohr,Bohr^-1):
 R(1)= 15.0000000  0.0000000  0.0000000  G(1)=  0.0666667  0.0000000  0.0000000
 R(2)=  0.0000000 15.0000000  0.0000000  G(2)=  0.0000000  0.0666667  0.0000000
 R(3)=  0.0000000  0.0000000 15.0000000  G(3)=  0.0000000  0.0000000  0.0666667
 Unit cell volume ucvol=  3.3750000E+03 bohr^3
 Angles (23,13,12)=  9.00000000E+01  9.00000000E+01  9.00000000E+01 degrees

 getcut: wavevector=  0.0000  0.0000  0.0000  ngfft=  54  54  54
         ecut(hartree)=     14.000   => boxcut(ratio)=   2.13734
--------------------------------------------------------------------------------

-inwffil : will read wavefunctions from disk file 0D_H2_o_DS1_WFK
- newkpt: read input wf with ikpt,npw=   1    4193, make ikpt,npw=   1    8385


================================================================================
 prteigrs : about to open file 0D_H2_o_DS2_EIG
 Non-SCF case, kpt    1 (  0.00000  0.00000  0.00000), residuals and eigenvalues=
  7.95E-14  1.42E-11  1.71E-11  2.15E-11  1.63E-11  1.21E-11  9.74E-12  3.07E-11
  1.70E-11  1.45E-11  2.20E-11  3.55E-12  1.63E-11  1.15E-11  2.23E-11  9.23E-12
  7.77E-12  1.40E-11  1.21E-11  1.23E-11  7.78E-11  1.67E-11  5.75E-11  2.51E-11
  4.52E-11  2.18E-11  1.93E-12  5.70E-12  2.77E-11  7.03E-12  9.83E-12  9.68E-12
  4.94E-11  4.95E-12  4.28E-11  3.00E-11  9.89E-11  8.59E-11  7.62E-11  9.18E-11
  8.83E-11  4.57E-11  5.00E-11  6.50E-11  9.50E-11  9.13E-11  9.77E-11  6.30E-11
  1.99E-08  1.96E-07
 -4.2286E-01 -6.9412E-03  4.9992E-02  5.9860E-02  5.9860E-02  7.7917E-02
  7.8812E-02  8.9445E-02  1.2717E-01  1.3767E-01  1.3767E-01  1.5819E-01
  1.5819E-01  1.5920E-01  1.6557E-01  1.6654E-01  1.6752E-01  1.6752E-01
  1.6772E-01  1.9307E-01  2.3114E-01  2.3928E-01  2.3928E-01  2.4679E-01
  2.4679E-01  2.4775E-01  2.4995E-01  2.7401E-01  3.0451E-01  3.1740E-01
  3.1740E-01  3.2504E-01  3.2741E-01  3.5577E-01  3.7217E-01  3.8580E-01
  3.8580E-01  4.0723E-01  4.0961E-01  4.0961E-01  4.1019E-01  4.1146E-01
  4.1953E-01  4.1957E-01  4.1957E-01  4.2361E-01  4.2458E-01  4.2458E-01
  4.2745E-01  4.2748E-01
  prteigrs : nnsclo,ikpt= 3000    1 max resid (incl. the buffer)=  1.96075E-07

======================================================================
 Calculating and writing out Kohn-Sham electronic Structure file
 Using conjugate gradient wavefunctions and energies (kssform=3)
 number of Gamma centered plane waves   8385
 number of Gamma centered shells   1269
 number of bands     50
 maximum angular momentum components      1
 Conjugate gradient eigenvalues
   k    eigenvalues [Hartree]
   1     -0.4229 -0.0069  0.0500  0.0599  0.0599  0.0779  0.0788  0.0894  0.1272
          0.1377  0.1377  0.1582  0.1582  0.1592  0.1656  0.1665  0.1675  0.1675
          0.1677  0.1931  0.2311  0.2393  0.2393  0.2468  0.2468  0.2477  0.2500
          0.2740  0.3045  0.3174  0.3174  0.3250  0.3274  0.3558  0.3722  0.3858
          0.3858  0.4072  0.4096  0.4096  0.4102  0.4115  0.4195  0.4196  0.4196
          0.4236  0.4246  0.4246  0.4275  0.4275
 Test on the normalization of the wavefunctions
  min sum_G |a(n,k,G)| =  1.000000
  max sum_G |a(n,k,G)| =  1.000000
 Test on the orthogonalization of the wavefunctions
  min sum_G a(n,k,G)a(n',k,G) =  0.000000
  max sum_G a(n,k,G)a(n',k,G) =  0.000000

================================================================================

 ----iterations are completed or convergence reached----

 Mean square residual over all n,k,spin=   4.3531E-09; max=  9.8906E-11
   0.0000  0.0000  0.0000    1  1.96075E-07 kpt; spin; max resid(k); each band:
  7.95E-14 1.42E-11 1.71E-11 2.15E-11 1.63E-11 1.21E-11 9.74E-12 3.07E-11
  1.70E-11 1.45E-11 2.20E-11 3.55E-12 1.63E-11 1.15E-11 2.23E-11 9.23E-12
  7.77E-12 1.40E-11 1.21E-11 1.23E-11 7.78E-11 1.67E-11 5.75E-11 2.51E-11
  4.52E-11 2.18E-11 1.93E-12 5.70E-12 2.77E-11 7.03E-12 9.83E-12 9.68E-12
  4.94E-11 4.95E-12 4.28E-11 3.00E-11 9.89E-11 8.59E-11 7.62E-11 9.18E-11
  8.83E-11 4.57E-11 5.00E-11 6.50E-11 9.50E-11 9.13E-11 9.77E-11 6.30E-11
  1.99E-08 1.96E-07
 reduced coordinates (array xred) for    2 atoms
       0.433333333333      0.500000000000      0.500000000000
       0.366666666667      0.500000000000      0.500000000000

 cartesian coordinates (angstrom) at end:
    1      3.43965185583500     3.96882906442500     3.96882906442500
    2      2.91047464724500     3.96882906442500     3.96882906442500
 length scales= 15.000000000000 15.000000000000 15.000000000000 bohr
              =  7.937658128850  7.937658128850  7.937658128850 angstroms
 prteigrs : about to open file 0D_H2_o_DS2_EIG
 Eigenvalues (hartree) for nkpt=   1  k points:
 kpt#   1, nband= 50, wtk=  1.00000, kpt=  0.0000  0.0000  0.0000 (reduced coord)
  -0.42286  -0.00694   0.04999   0.05986   0.05986   0.07792   0.07881   0.08944
   0.12717   0.13767   0.13767   0.15819   0.15819   0.15920   0.16557   0.16654
   0.16752   0.16752   0.16772   0.19307   0.23114   0.23928   0.23928   0.24679
   0.24679   0.24775   0.24995   0.27401   0.30451   0.31740   0.31740   0.32504
   0.32741   0.35577   0.37217   0.38580   0.38580   0.40723   0.40961   0.40961
   0.41019   0.41146   0.41953   0.41957   0.41957   0.42361   0.42458   0.42458
   0.42745   0.42748
 Total charge density [el/Bohr^3]
,     Maximum=    4.5127E-01  at reduced coord.    0.4074    0.5000    0.5000
,Next maximum=    4.4301E-01  at reduced coord.    0.3889    0.5000    0.5000
,     Minimum=    6.4280E-13  at reduced coord.    0.1481    0.0000    0.0000
,Next minimum=    2.7143E-14  at reduced coord.    0.6111    0.0000    0.0000
,  Integrated=    2.0000E+00

== END DATASET(S) ==============================================================
================================================================================
  
 -outvars: echo values of variables after computation  --------
            acell      1.5000000000E+01  1.5000000000E+01  1.5000000000E+01 Bohr
              amu      1.00794000E+00
             ecut      1.40000000E+01 Hartree
           etotal1    -1.0914592050E+00
            fcart1     3.2883987570E-01 -0.0000000000E+00 -0.0000000000E+00
                      -3.2883987570E-01 -0.0000000000E+00 -0.0000000000E+00
           getden1          0
           getden2          1
           getwfk1          0
           getwfk2          1
             iscf1          3
             iscf2         -2
           istwfk1       2
           istwfk2       1
           jdtset        1    2
         kptrlatt        1    0    0      0    1    0      0    0    1
          kptrlen      1.50000000E+04
          kssform1          1
          kssform2          3
P           mkmem           1
            natom           2
            nband1          4
            nband2         50
         nbandkss1          0
         nbandkss2         50
           nbdbuf1          0
           nbdbuf2          2
           ndtset           2
            ngfft          54      54      54
             nkpt           1
            nstep1       1000
            nstep2       3000
             nsym1         16
             nsym2          8
           ntypat           1
              occ      2.000000  0.000000  0.000000  0.000000
          spgroup         123
           strten1    -9.7048730643E-05  1.3787955255E-06  1.3787955255E-06
                       0.0000000000E+00  0.0000000000E+00  0.0000000000E+00
           symafm1       1    1    1    1    1    1    1    1    1    1
                         1    1    1    1    1    1
           symafm2       1    1    1    1    1    1    1    1
        symmorphi1          1
        symmorphi2          0
           symrel1     1  0  0   0  1  0   0  0  1      -1  0  0   0 -1  0   0  0 -1
                      -1  0  0   0  1  0   0  0 -1       1  0  0   0 -1  0   0  0  1
                      -1  0  0   0 -1  0   0  0  1       1  0  0   0  1  0   0  0 -1
                       1  0  0   0 -1  0   0  0 -1      -1  0  0   0  1  0   0  0  1
                       1  0  0   0  0  1   0  1  0      -1  0  0   0  0 -1   0 -1  0
                      -1  0  0   0  0  1   0 -1  0       1  0  0   0  0 -1   0  1  0
                      -1  0  0   0  0 -1   0  1  0       1  0  0   0  0  1   0 -1  0
                       1  0  0   0  0 -1   0 -1  0      -1  0  0   0  0  1   0  1  0
           symrel2     1  0  0   0  1  0   0  0  1       1  0  0   0 -1  0   0  0  1
                       1  0  0   0  1  0   0  0 -1       1  0  0   0 -1  0   0  0 -1
                       1  0  0   0  0  1   0  1  0       1  0  0   0  0 -1   0  1  0
                       1  0  0   0  0  1   0 -1  0       1  0  0   0  0 -1   0 -1  0
            tnons1     0.0000000  0.0000000  0.0000000    -0.2000000  0.0000000  0.0000000
                      -0.2000000  0.0000000  0.0000000     0.0000000  0.0000000  0.0000000
                      -0.2000000  0.0000000  0.0000000     0.0000000  0.0000000  0.0000000
                       0.0000000  0.0000000  0.0000000    -0.2000000  0.0000000  0.0000000
                       0.0000000  0.0000000  0.0000000    -0.2000000  0.0000000  0.0000000
                      -0.2000000  0.0000000  0.0000000     0.0000000  0.0000000  0.0000000
                      -0.2000000  0.0000000  0.0000000     0.0000000  0.0000000  0.0000000
                       0.0000000  0.0000000  0.0000000    -0.2000000  0.0000000  0.0000000
            tnons2     0.0000000  0.0000000  0.0000000     0.0000000  0.0000000  0.0000000
                       0.0000000  0.0000000  0.0000000     0.0000000  0.0000000  0.0000000
                       0.0000000  0.0000000  0.0000000     0.0000000  0.0000000  0.0000000
                       0.0000000  0.0000000  0.0000000     0.0000000  0.0000000  0.0000000
           toldfe1     1.00000000E-12 Hartree
           toldfe2     0.00000000E+00 Hartree
           tolwfr1     0.00000000E+00
           tolwfr2     1.00000000E-10
            typat      1  1
           xangst      3.4396518558E+00  3.9688290644E+00  3.9688290644E+00
                       2.9104746472E+00  3.9688290644E+00  3.9688290644E+00
            xcart      6.5000000000E+00  7.5000000000E+00  7.5000000000E+00
                       5.5000000000E+00  7.5000000000E+00  7.5000000000E+00
             xred      4.3333333333E-01  5.0000000000E-01  5.0000000000E-01
                       3.6666666667E-01  5.0000000000E-01  5.0000000000E-01
            znucl        1.00000

================================================================================


- Timing analysis has been suppressed with timopt=0



================================================================================

 Suggested references for the acknowledgment of ABINIT usage.

 The users of ABINIT have little formal obligations with respect to the ABINIT group
 (those specified in the GNU General Public License, http://www.gnu.org/copyleft/gpl.txt).
 However, it is common practice in the scientific literature,
 to acknowledge the efforts of people that have made the research possible.
 In this spirit, please find below suggested citations of work written by ABINIT developers,
 corresponding to implementations inside of ABINIT that you have used in the present run.
 Note also that it will be of great value to readers of publications presenting these results,
 to read papers enabling them to understand the theoretical formalism and details
 of the ABINIT implementation.
 For information on why they are suggested, see also http://www.abinit.org/about/?text=acknowledgments.

 [1] ABINIT : First-principles approach of materials and nanosystem properties.
 X. Gonze, B. Amadon, P.-M. Anglade, J.-M. Beuken, F. Bottin, P. Boulanger, F. Bruneval,
 D. Caliste, R. Caracas, M. Cote, T. Deutsch, L. Genovese, Ph. Ghosez, M. Giantomassi
 S. Goedecker, D.R. Hamann, P. Hermet, F. Jollet, G. Jomard, S. Leroux, M. Mancini, S. Mazevet,
 M.J.T. Oliveira, G. Onida, Y. Pouillon, T. Rangel, G.-M. Rignanese, D. Sangalli, R. Shaltaf,
 M. Torrent, M.J. Verstraete, G. Zerah, J.W. Zwanziger
 Computer Phys. Comm. 180, 2582-2615 (2009).
 Comment : the third generic paper describing the ABINIT project.
 Note that a version of this paper, that is not formatted for Computer Phys. Comm. 
 is available at http://www.abinit.org/about/ABINIT_CPC_v10.pdf .
 The licence allows the authors to put it on the Web.

 [2] A brief introduction to the ABINIT software package.
 X. Gonze, G.-M. Rignanese, M. Verstraete, J.-M. Beuken, Y. Pouillon, R. Caracas, F. Jollet,
 M. Torrent, G. Zerah, M. Mikami, Ph. Ghosez, M. Veithen, J.-Y. Raty, V. Olevano, F. Bruneval,
 L. Reining, R. Godby, G. Onida, D.R. Hamann, and D.C. Allan.
 Z. Kristallogr. 220, 558-562 (2005).
 Comment : the second generic paper describing the ABINIT project. Note that this paper
 should be cited especially if you are using the GW part of ABINIT, as several authors
 of this part are not in the list of authors of the first or third paper.
 The .pdf of the latter paper is available at http://www.abinit.org/about/zfk_0505-06_558-562.pdf.
 Note that it should not redistributed (Copyright by Oldenburg Wissenshaftverlag,
 the licence allows the authors to put it on the Web).


 And optionally :

 [3] First-principles computation of material properties : the ABINIT software project. 
 X. Gonze, J.-M. Beuken, R. Caracas, F. Detraux, M. Fuchs, G.-M. Rignanese, L. Sindic,
 M. Verstraete, G. Zerah, F. Jollet, M. Torrent, A. Roy, M. Mikami, Ph. Ghosez, J.-Y. Raty, D.C. Allan.
 Computational Materials Science 25, 478-492 (2002). http://dx.doi.org/10.1016/S0927-0256(02)00325-7
 Comment : the original paper describing the ABINIT project.

 [4] Fast radix 2, 3, 4 and 5 kernels for Fast Fourier Transformations
 on computers with overlapping multiply-add instructions.
 S. Goedecker, SIAM J. on Scientific Computing 18, 1605 (1997).
-
- Proc.   0 individual time (sec): cpu=         24.1  wall=         24.3

================================================================================

 Calculation completed.
.Delivered   13 WARNINGs and  10 COMMENTs to log file.
+Overall time at end (sec) : cpu=         24.1  wall=         24.3
