  ABINIT 
  
  Give name for formatted input file: 
0D_H2.in
  Give name for formatted output file:
0D_H2.out
  Give root name for generic input files:
0D_H2_i
  Give root name for generic output files:
0D_H2_o
  Give root name for generic temporary files:
0D_H2

 isfile : WARNING -
  Finds that output file 0D_H2.out
 already exists.
 new name assigned:0D_H2.outA


 herald :  WARNING -
  The starting date is more than 3 years after the initial release
  of this version of ABINIT, namely Aug 2013.
  This version of ABINIT is not supported anymore.
  Action : please, switch to a more recent version of ABINIT.

.Version 7.4.1 of ABINIT 
.(MPI version, prepared for a x86_64_linux_gnu5.4 computer) 

.Copyright (C) 1998-2013 ABINIT group . 
 ABINIT comes with ABSOLUTELY NO WARRANTY.
 It is free software, and you are welcome to redistribute it
 under certain conditions (GNU General Public License,
 see ~abinit/COPYING or http://www.gnu.org/copyleft/gpl.txt).

 ABINIT is a project of the Universite Catholique de Louvain,
 Corning Inc. and other collaborators, see ~abinit/doc/developers/contributors.txt .
 Please read ~abinit/doc/users/acknowledgments.html for suggested
 acknowledgments of the ABINIT effort.
 For more information, see http://www.abinit.org .

.Starting date : Tue 24 Jul 2018.
- ( at 08h59 )
  

 herald :  WARNING -
  The starting date is more than 3 years after the initial release
  of this version of ABINIT, namely Aug 2013.
  This version of ABINIT is not supported anymore.
  Action : please, switch to a more recent version of ABINIT.

 herald :  WARNING -
  The starting date is more than 3 years after the initial release
  of this version of ABINIT, namely Aug 2013.
  This version of ABINIT is not supported anymore.
  Action : please, switch to a more recent version of ABINIT.

 ++++++++++++++++++++++++++++++++++++++++++++++++++++++++++++++++++++++++++++++

 === Build Information === 
  Version       : 7.4.1
  Build target  : x86_64_linux_gnu5.4
  Build date    : 20180724

 === Compiler Suite === 
  C compiler       : gnu5.4
  CFLAGS           :  -g -O2 -mtune=native -march=native
  C++ compiler     : gnu5.4
  CXXFLAGS         :  -g -O2 -mtune=native -march=native
  Fortran compiler : gnu5.4
  FCFLAGS          :  -g -ffree-line-length-none
  FC_LDFLAGS       : 

 === Optimizations === 
  Debug level        : basic
  Optimization level : standard
  Architecture       : unknown_unknown

 === MPI === 
  Parallel build : yes
  Parallel I/O   : auto
  Time tracing   : no
  GPU support    : no

 === Connectors / Fallbacks === 
  Connectors on : yes
  Fallbacks on  : yes
  DFT flavor    : none
  FFT flavor    : none
  LINALG flavor : netlib
  MATH flavor   : none
  TIMER flavor  : abinit
  TRIO flavor   : none

 === Experimental features === 
  Bindings            : no
  Exports             : no
  GW double-precision : no

 ++++++++++++++++++++++++++++++++++++++++++++++++++++++++++++++++++++++++++++++


 ++++++++++++++++++++++++++++++++++++++++++++++++++++++++++++++++++++++++++++++
 Default optimizations:
   -O2 -mtune=native -march=native


 ++++++++++++++++++++++++++++++++++++++++++++++++++++++++++++++++++++++++++++++


 ++++++++++++++++++++++++++++++++++++++++++++++++++++++++++++++++++++++++++++++
 CPP options activated during the build:

                    CC_GNU                   CXX_GNU                    FC_GNU

 HAVE_FC_ALLOCATABLE_DT...      HAVE_FC_COMMAND_LINE        HAVE_FC_CONTIGUOUS

           HAVE_FC_CPUTIME              HAVE_FC_EXIT             HAVE_FC_FLUSH

             HAVE_FC_GAMMA            HAVE_FC_GETENV          HAVE_FC_INT_QUAD

             HAVE_FC_IOMSG     HAVE_FC_ISO_C_BINDING        HAVE_FC_LONG_LINES

              HAVE_FC_NULL         HAVE_FC_STREAM_IO          HAVE_FORTRAN2003

               HAVE_LINALG        HAVE_LINALG_SERIAL                  HAVE_MPI

                 HAVE_MPI2               HAVE_MPI_IO HAVE_MPI_TYPE_CREATE_S...

                HAVE_NUMPY             HAVE_OS_LINUX                HAVE_TIMER

         HAVE_TIMER_ABINIT            HAVE_TIMER_MPI         HAVE_TIMER_SERIAL

 ++++++++++++++++++++++++++++++++++++++++++++++++++++++++++++++++++++++++++++++

- input  file    -> 0D_H2.in
- output file    -> 0D_H2.outA
- root for input  files -> 0D_H2_i
- root for output files -> 0D_H2_o

-instrng :    37 lines of input have been read from file 0D_H2.in


 iofn2 : Please give name of formatted atomic psp file
 iofn2 : for atom type   1 , psp file is 1h.pspnc
  read the values zionpsp=  1.0 , pspcod=   1 , lmax=   0

 inpspheads : deduce mpsang  =   1, n1xccc  =   0.

 invars1m : enter jdtset=     1
 invars1 : treat image number     1

 symlatt : the Bravais lattice is cP (primitive cubic)
  xcart  is defined in input file
 ingeo : takes atomic coordinates from input array xcart

 symlatt : the Bravais lattice is cP (primitive cubic)

 symlatt : the Bravais lattice is cP (primitive cubic)

 symbrav : COMMENT -
  The Bravais lattice determined only from the primitive
  vectors, bravais(1)=  7, is more symmetric
  than the real one, iholohedry=  4, obtained by taking into
  account the atomic positions. Start deforming the primitive vector set.

 symlatt : the Bravais lattice is tP (primitive tetragonal)
 symspgr : the symmetry operation no.   1 is the identity
 symspgr : the symmetry operation no.   2 is an inversion
 symaxes : the symmetry operation no.   3 is a 2-axis
 symplanes : the symmetry operation no.   4 is a mirror plane
 symaxes : the symmetry operation no.   5 is a 2-axis
 symplanes : the symmetry operation no.   6 is a mirror plane
 symaxes : the symmetry operation no.   7 is a 2-axis
 symplanes : the symmetry operation no.   8 is a mirror plane
 symplanes : the symmetry operation no.   9 is a mirror plane
 symaxes : the symmetry operation no.  10 is a tertiary 2-axis
 symspgr : the symmetry operation no.  11 is a -4 axis
 symaxes : the symmetry operation no.  12 is a 4-axis
 symspgr : the symmetry operation no.  13 is a -4 axis
 symaxes : the symmetry operation no.  14 is a 4-axis
 symplanes : the symmetry operation no.  15 is a mirror plane
 symaxes : the symmetry operation no.  16 is a tertiary 2-axis
 symspgr : spgroup= 123  P4/m m m   (=D4h^1)
 getkgrid : length of smallest supercell vector (bohr)=    1.500000E+04
       Simple Lattice Grid
 symkpt : found identity, with number  1

 invars1m : enter jdtset=     2
 invars1 : treat image number     1

 symlatt : the Bravais lattice is cP (primitive cubic)
  xcart  is defined in input file
 ingeo : takes atomic coordinates from input array xcart

 symlatt : the Bravais lattice is cP (primitive cubic)

 symlatt : the Bravais lattice is cP (primitive cubic)

 symbrav : COMMENT -
  The Bravais lattice determined only from the primitive
  vectors, bravais(1)=  7, is more symmetric
  than the real one, iholohedry=  4, obtained by taking into
  account the atomic positions. Start deforming the primitive vector set.

 symlatt : the Bravais lattice is tP (primitive tetragonal)
 symspgr : the symmetry operation no.   1 is the identity
 symspgr : the symmetry operation no.   2 is an inversion
 symaxes : the symmetry operation no.   3 is a 2-axis
 symplanes : the symmetry operation no.   4 is a mirror plane
 symaxes : the symmetry operation no.   5 is a 2-axis
 symplanes : the symmetry operation no.   6 is a mirror plane
 symaxes : the symmetry operation no.   7 is a 2-axis
 symplanes : the symmetry operation no.   8 is a mirror plane
 symplanes : the symmetry operation no.   9 is a mirror plane
 symaxes : the symmetry operation no.  10 is a tertiary 2-axis
 symspgr : the symmetry operation no.  11 is a -4 axis
 symaxes : the symmetry operation no.  12 is a 4-axis
 symspgr : the symmetry operation no.  13 is a -4 axis
 symaxes : the symmetry operation no.  14 is a 4-axis
 symplanes : the symmetry operation no.  15 is a mirror plane
 symaxes : the symmetry operation no.  16 is a tertiary 2-axis
 symspgr : spgroup= 123  P4/m m m   (=D4h^1)
 getkgrid : length of smallest supercell vector (bohr)=    1.500000E+04
       Simple Lattice Grid
 symkpt : found identity, with number  1
 getkgrid : length of smallest supercell vector (bohr)=    1.500000E+04
       Simple Lattice Grid
 symkpt : found identity, with number  1
  dtset%nelect=   2.0000000000000000     
 chkneu : initialized the occupation numbers for occopt=    1
    spin-unpolarized case :
  2.00  0.00  0.00  0.00
 getkgrid : length of smallest supercell vector (bohr)=    1.500000E+04
       Simple Lattice Grid
 symkpt : found identity, with number  1
  dtset%nelect=   2.0000000000000000     
 chkneu : initialized the occupation numbers for occopt=    1
    spin-unpolarized case :
  2.00  0.00  0.00  0.00  0.00  0.00  0.00  0.00  0.00  0.00  0.00  0.00
  0.00  0.00  0.00  0.00  0.00  0.00  0.00  0.00  0.00  0.00  0.00  0.00
  0.00  0.00  0.00  0.00  0.00  0.00  0.00  0.00  0.00  0.00  0.00  0.00
  0.00  0.00  0.00  0.00  0.00  0.00  0.00  0.00  0.00  0.00  0.00  0.00
  0.00  0.00
  mpi_setup : enter 
 mpi_setup1: mkmem  undefined in the input file. Use default mkmem  = nkpt
 mpi_setup1: With nkpt_me=    1 and mkmem  =     1, ground state wf handled in core.
 mpi_setup1: mkqmem undefined in the input file. Use default mkqmem = nkpt
 mpi_setup1: With nkpt_me=    1 and mkqmem =     1, ground state wf handled in core.
 mpi_setup1: mk1mem undefined in the input file. Use default mk1mem = nkpt
 mpi_setup1: With nkpt_me=    1 and mk1mem =     1, ground state wf handled in core.

 getng.F90:200:WARNING
   The second and third dimension of the FFT grid,    0    0  were imposed to be multiple of the number of processors for the FFT,    1
 For input ecut=  1.400000E+01 best grid ngfft=      54      54      54
       max ecut=  1.598876E+01

 ==== FFT mesh ====
  FFT mesh divisions ........................    54   54   54
  Augmented FFT divisions ...................    55   55   54
  FFT algorithm .............................   112
  FFT cache size ............................    16
 getmpw: optimal value of mpw=    4193

 mpi_setup : WARNING -
 For non ground state calculation, set bandpp, npfft, npband, npspinor and npkpt to 1
 mpi_setup1: mkmem  undefined in the input file. Use default mkmem  = nkpt
 mpi_setup1: With nkpt_me=    1 and mkmem  =     1, ground state wf handled in core.
 mpi_setup1: mkqmem undefined in the input file. Use default mkqmem = nkpt
 mpi_setup1: With nkpt_me=    1 and mkqmem =     1, ground state wf handled in core.
 mpi_setup1: mk1mem undefined in the input file. Use default mk1mem = nkpt
 mpi_setup1: With nkpt_me=    1 and mk1mem =     1, ground state wf handled in core.
 For input ecut=  1.400000E+01 best grid ngfft=      54      54      54
       max ecut=  1.598876E+01

 ==== FFT mesh ====
  FFT mesh divisions ........................    54   54   54
  Augmented FFT divisions ...................    55   55   54
  FFT algorithm .............................   112
  FFT cache size ............................    16
 getmpw: optimal value of mpw=    8385

 DATASET    1 : space group P4/m m m (#123); Bravais tP (primitive tetrag.)

 getdim_nloc : COMMENT -
  Despite there is only a local part to pseudopotential(s),
  lmnmax and lnmax are set to 1.

 getdim_nloc : deduce lmnmax  =   1, lnmax  =   1,
                      lmnmaxso=   1, lnmaxso=   1.
 setmqgrid : COMMENT -
  The number of points "mqgrid" in reciprocal space used for the
  description of the pseudopotentials has been set automatically
  by abinit to :     3001.
 memory : analysis of memory needs
================================================================================
 Values of the parameters that define the memory need for DATASET  1.
   intxc =         0  ionmov =         0    iscf =         3 xclevel =         1
  lmnmax =         1   lnmax =         1   mband =         4  mffmem =         1
P  mgfft =        54   mkmem =         1 mpssoang=         1     mpw =      4193
  mqgrid =      3001   natom =         2    nfft =    157464    nkpt =         1
  nloalg =         4  nspden =         1 nspinor =         1  nsppol =         1
    nsym =        16  n1xccc =         0  ntypat =         1  occopt =         1
================================================================================
P This job should need less than                      29.733 Mbytes of memory.
  Rough estimation (10% accuracy) of disk space for files :
_ WF disk file :      0.258 Mbytes ; DEN or POT disk file :      1.203 Mbytes.
================================================================================

 Biggest array : f_fftgr(disk), with      4.8074 MBytes.
 memana : allocated an array of      4.807 Mbytes, for testing purposes.
 memana : allocated      29.733 Mbytes, for testing purposes.
 The job will continue.

 DATASET    2 : space group P4/m m m (#123); Bravais tP (primitive tetrag.)

 getdim_nloc : COMMENT -
  Despite there is only a local part to pseudopotential(s),
  lmnmax and lnmax are set to 1.

 getdim_nloc : deduce lmnmax  =   1, lnmax  =   1,
                      lmnmaxso=   1, lnmaxso=   1.
 setmqgrid : COMMENT -
  The number of points "mqgrid" in reciprocal space used for the
  description of the pseudopotentials has been set automatically
  by abinit to :     3001.
 memory : analysis of memory needs
================================================================================
 Values of the parameters that define the memory need for DATASET  2.
   intxc =         0  ionmov =         0    iscf =        -2 xclevel =         1
  lmnmax =         1   lnmax =         1   mband =        50  mffmem =         1
P  mgfft =        54   mkmem =         1 mpssoang=         1     mpw =      8385
  mqgrid =      3001   natom =         2    nfft =    157464    nkpt =         1
  nloalg =         4  nspden =         1 nspinor =         1  nsppol =         1
    nsym =         8  n1xccc =         0  ntypat =         1  occopt =         1
================================================================================
P This job should need less than                      32.419 Mbytes of memory.
  Rough estimation (10% accuracy) of disk space for files :
_ WF disk file :      6.399 Mbytes ; DEN or POT disk file :      1.203 Mbytes.
================================================================================

 Biggest array : cg(disk), with      6.3992 MBytes.
 memana : allocated an array of      6.399 Mbytes, for testing purposes.
 memana : allocated      32.419 Mbytes, for testing purposes.
 The job will continue.
--------------------------------------------------------------------------------
------------- Echo of variables that govern the present computation ------------
--------------------------------------------------------------------------------
-
- outvars: echo of selected default values                                      
-   accesswff0 =  0 , fftalg0 =112 , wfoptalg0 =  0
-
- outvars: echo of global parameters not present in the input file              
-  max_nthreads =    0
-
 -outvars: echo values of preprocessed input variables --------
            acell      1.5000000000E+01  1.5000000000E+01  1.5000000000E+01 Bohr
              amu      1.00794000E+00
             ecut      1.40000000E+01 Hartree
           getden1          0
           getden2          1
           getwfk1          0
           getwfk2          1
             iscf1          3
             iscf2         -2
           istwfk1       2
           istwfk2       1
           jdtset        1    2
         kptrlatt        1    0    0      0    1    0      0    0    1
          kptrlen      1.50000000E+04
          kssform1          1
          kssform2          3
P           mkmem           1
            natom           2
            nband1          4
            nband2         50
         nbandkss1          0
         nbandkss2         50
           nbdbuf1          0
           nbdbuf2          2
           ndtset           2
            ngfft          54      54      54
             nkpt           1
            nstep1       1000
            nstep2       3000
             nsym1         16
             nsym2          8
           ntypat           1
              occ      2.000000  0.000000  0.000000  0.000000
          spgroup         123
           symafm1       1    1    1    1    1    1    1    1    1    1
                         1    1    1    1    1    1
           symafm2       1    1    1    1    1    1    1    1
        symmorphi1          1
        symmorphi2          0
           symrel1     1  0  0   0  1  0   0  0  1      -1  0  0   0 -1  0   0  0 -1
                      -1  0  0   0  1  0   0  0 -1       1  0  0   0 -1  0   0  0  1
                      -1  0  0   0 -1  0   0  0  1       1  0  0   0  1  0   0  0 -1
                       1  0  0   0 -1  0   0  0 -1      -1  0  0   0  1  0   0  0  1
                       1  0  0   0  0  1   0  1  0      -1  0  0   0  0 -1   0 -1  0
                      -1  0  0   0  0  1   0 -1  0       1  0  0   0  0 -1   0  1  0
                      -1  0  0   0  0 -1   0  1  0       1  0  0   0  0  1   0 -1  0
                       1  0  0   0  0 -1   0 -1  0      -1  0  0   0  0  1   0  1  0
           symrel2     1  0  0   0  1  0   0  0  1       1  0  0   0 -1  0   0  0  1
                       1  0  0   0  1  0   0  0 -1       1  0  0   0 -1  0   0  0 -1
                       1  0  0   0  0  1   0  1  0       1  0  0   0  0 -1   0  1  0
                       1  0  0   0  0  1   0 -1  0       1  0  0   0  0 -1   0 -1  0
            tnons1     0.0000000  0.0000000  0.0000000    -0.2000000  0.0000000  0.0000000
                      -0.2000000  0.0000000  0.0000000     0.0000000  0.0000000  0.0000000
                      -0.2000000  0.0000000  0.0000000     0.0000000  0.0000000  0.0000000
                       0.0000000  0.0000000  0.0000000    -0.2000000  0.0000000  0.0000000
                       0.0000000  0.0000000  0.0000000    -0.2000000  0.0000000  0.0000000
                      -0.2000000  0.0000000  0.0000000     0.0000000  0.0000000  0.0000000
                      -0.2000000  0.0000000  0.0000000     0.0000000  0.0000000  0.0000000
                       0.0000000  0.0000000  0.0000000    -0.2000000  0.0000000  0.0000000
            tnons2     0.0000000  0.0000000  0.0000000     0.0000000  0.0000000  0.0000000
                       0.0000000  0.0000000  0.0000000     0.0000000  0.0000000  0.0000000
                       0.0000000  0.0000000  0.0000000     0.0000000  0.0000000  0.0000000
                       0.0000000  0.0000000  0.0000000     0.0000000  0.0000000  0.0000000
           toldfe1     1.00000000E-12 Hartree
           toldfe2     0.00000000E+00 Hartree
           tolwfr1     0.00000000E+00
           tolwfr2     1.00000000E-10
            typat      1  1
           xangst      3.4396518558E+00  3.9688290644E+00  3.9688290644E+00
                       2.9104746472E+00  3.9688290644E+00  3.9688290644E+00
            xcart      6.5000000000E+00  7.5000000000E+00  7.5000000000E+00
                       5.5000000000E+00  7.5000000000E+00  7.5000000000E+00
             xred      4.3333333333E-01  5.0000000000E-01  5.0000000000E-01
                       3.6666666667E-01  5.0000000000E-01  5.0000000000E-01
            znucl        1.00000

================================================================================

 chkinp: machine precision is   2.2204460492503131E-16

 chkinp: Checking input parameters for consistency, jdtset=   1.

 chkinp: Checking input parameters for consistency, jdtset=   2.
 Checking if input is consistent with KSS generation
 DATA TYPE INFORMATION: 
 REAL:      Data type name: REAL(DP) 
            Kind value:      8
            Precision:      15
            Smallest nonnegligible quantity relative to 1:  0.22204460E-15
            Smallest positive number:                       0.22250739-307
            Largest representable number:                   0.17976931+309
 INTEGER:   Data type name: INTEGER(default) 
            Kind value: 4
            Bit size:   32
            Largest representable number: 2147483647
 LOGICAL:   Data type name: LOGICAL 
            Kind value: 4
 CHARACTER: Data type name: CHARACTER             Kind value: 1
 ==== OpenMP parallelism is OFF ====
 
  ==== Using MPI-2 specifications ==== 
  MPI-IO support is ON
  xmpi_tag_ub ................   2147483647
  xmpi_bsize_ch ..............            1
  xmpi_bsize_int .............            4
  xmpi_bsize_sp ..............            4
  xmpi_bsize_dp ..............            8
  xmpi_bsize_spc .............            8
  xmpi_bsize_dpc .............           16
  xmpio_bsize_frm ............            4
  xmpi_address_kind ..........            8
  xmpi_offset_kind ...........            8
  MPI_WTICK ..................    9.9999999999999995E-007

================================================================================
== DATASET  1 ==================================================================
-   nproc =    1

 setmqgrid : COMMENT -
  The number of points "mqgrid" in reciprocal space used for the
  description of the pseudopotentials has been set automatically
  by abinit to :     3001.

 getdim_nloc : COMMENT -
  Despite there is only a local part to pseudopotential(s),
  lmnmax and lnmax are set to 1.

 getdim_nloc : deduce lmnmax  =   1, lnmax  =   1,
                      lmnmaxso=   1, lnmaxso=   1.
 Exchange-correlation functional for the present dataset will be:
  LDA: new Teter (4/93) with spin-polarized option - ixc=1
 Citation for XC functional:
  S. Goedecker, M. Teter, J. Huetter, PRB 54, 1703 (1996)

 Unit cell volume ucvol=  3.3750000E+03 bohr^3
 Angles (23,13,12)=  9.00000000E+01  9.00000000E+01  9.00000000E+01 degrees

 getcut: wavevector=  0.0000  0.0000  0.0000  ngfft=  54  54  54
         ecut(hartree)=     14.000   => boxcut(ratio)=   2.13734
- pspini: atom type   1  psp file is 1h.pspnc
- pspatm: opening atomic psp file    1h.pspnc
-  Troullier-Martins psp for element  H         Thu Oct 27 17:28:54 EDT 1994
-  1.00000   1.00000    940714                znucl, zion, pspdat
    1    1    0    0      2001   0.00000      pspcod,pspxc,lmax,lloc,mmax,r2well
    0   7.740  11.990    0   1.5855604        l,e99.0,e99.9,nproj,rcpsp
   0.00000000   0.00000000   0.00000000   0.00000000     rms, ekb1, ekb2, epsatm
    0.00000000000000    0.00000000000000    0.00000000000000   rchrg,fchrg,qchrg
 Note: local psp for atom with Z=  1.0
 pspatm: epsatm=    0.04198703
         --- l  ekb(1:nproj) -->
 pspatm: atomic psp has been read  and splines computed

   1.67948119E-01                                ecore*ucvol(ha*bohr**3)
   1  2  2  1  2  1  1  2  1  2  2  1  2  1  1  2
   2  1  1  2  1  2  2  1  2  1  1  2  1  2  2  1
 wfconv:     4 bands initialized randomly with npw=  4193, for ikpt=     1

_setup2: Arith. and geom. avg. npw (full set) are    8385.000    8385.000
 initro : for itypat=  1, take decay length=      0.6000,
 initro : indeed, coreel=      0.0000, nval=  1 and densty=  0.0000E+00.

================================================================================

 getcut: wavevector=  0.0000  0.0000  0.0000  ngfft=  54  54  54
         ecut(hartree)=     14.000   => boxcut(ratio)=   2.13734

 ewald : nr and ng are    2 and   15

 ITER STEP NUMBER     1
 vtorho : nnsclo_now=  2, note that nnsclo,dbl_nnsclo,istep=  0 0  1
 Total charge density [el/Bohr^3]
,     Maximum=    5.1894E-01  at reduced coord.    0.4074    0.5000    0.5000
,     Minimum=    5.7776E-09  at reduced coord.    0.0370    0.5000    0.5000
,  Integrated=    2.0000E+00
 ETOT  1  -1.0724451300708    -1.072E+00 1.402E-02 3.853E+01
 scprqt: <Vxc>= -2.5250983E-02 hartree

Simple mixing update:
  residual square of the potential :   9.0816278311663741

 ITER STEP NUMBER     2
 vtorho : nnsclo_now=  2, note that nnsclo,dbl_nnsclo,istep=  0 0  2
 Total charge density [el/Bohr^3]
,     Maximum=    4.4812E-01  at reduced coord.    0.4074    0.5000    0.5000
,     Minimum=    1.6681E-13  at reduced coord.    0.1481    0.0000    0.0000
,  Integrated=    2.0000E+00
 ETOT  2  -1.0913349605448    -1.889E-02 1.525E-07 1.135E+01
 scprqt: <Vxc>= -2.1143709E-02 hartree

Anderson update:
  residual square of the potential:    1.8285892866126379
  mixing of old trial potential    :   1.3903266090931215E-002
  predicted best residual square on the line:    1.8271471680863438

 ITER STEP NUMBER     3
 vtorho : nnsclo_now=  1, note that nnsclo,dbl_nnsclo,istep=  0 0  3
 Total charge density [el/Bohr^3]
,     Maximum=    4.5403E-01  at reduced coord.    0.4074    0.5000    0.5000
,     Minimum=    9.2006E-14  at reduced coord.    0.1481    0.0000    0.0000
,  Integrated=    2.0000E+00
 ETOT  3  -1.0914078944360    -7.293E-05 3.442E-07 5.630E+00
 scprqt: <Vxc>= -2.1414671E-02 hartree

Anderson update:
  residual square of the potential:   0.50769577035743241
  mixing of old trial potential    : -0.68238777432391617
  predicted best residual square on the line:   0.24759576748620826

 ITER STEP NUMBER     4
 vtorho : nnsclo_now=  1, note that nnsclo,dbl_nnsclo,istep=  0 0  4
 Total charge density [el/Bohr^3]
,     Maximum=    4.5079E-01  at reduced coord.    0.4074    0.5000    0.5000
,     Minimum=    7.7149E-14  at reduced coord.    0.9259    0.0185    0.0000
,  Integrated=    2.0000E+00
 ETOT  4  -1.0914587265831    -5.083E-05 1.866E-06 2.621E+00
 scprqt: <Vxc>= -2.1921781E-02 hartree

Anderson update:
  residual square of the potential:    9.1496494989131261E-002
  mixing of old trial potential    : -0.24426059806729034
  predicted best residual square on the line:    7.4814302473411837E-002

 ITER STEP NUMBER     5
 vtorho : nnsclo_now=  1, note that nnsclo,dbl_nnsclo,istep=  0 0  5
 Total charge density [el/Bohr^3]
,     Maximum=    4.5103E-01  at reduced coord.    0.4074    0.5000    0.5000
,     Minimum=    3.2574E-14  at reduced coord.    0.1852    0.0000    0.0000
,  Integrated=    2.0000E+00
 ETOT  5  -1.0914584296508     2.969E-07 1.581E-08 1.465E+00
 scprqt: <Vxc>= -2.1975563E-02 hartree

Anderson update:
  residual square of the potential:    4.3811227134662491E-002
  mixing of old trial potential    : -0.67441593151919677
  predicted best residual square on the line:    3.4577268203408403E-002

 ITER STEP NUMBER     6
 vtorho : nnsclo_now=  1, note that nnsclo,dbl_nnsclo,istep=  0 0  6
 Total charge density [el/Bohr^3]
,     Maximum=    4.5089E-01  at reduced coord.    0.4074    0.5000    0.5000
,     Minimum=    8.7489E-16  at reduced coord.    0.1852    0.0000    0.0000
,  Integrated=    2.0000E+00
 ETOT  6  -1.0914581207928     3.089E-07 4.327E-08 6.267E-01
 scprqt: <Vxc>= -2.1976214E-02 hartree

Anderson update:
  residual square of the potential:    1.9510210204158784E-002
  mixing of old trial potential    : -0.83759673669115953
  predicted best residual square on the line:    1.3137279370033495E-002

 ITER STEP NUMBER     7
 vtorho : nnsclo_now=  1, note that nnsclo,dbl_nnsclo,istep=  0 0  7
 Total charge density [el/Bohr^3]
,     Maximum=    4.5106E-01  at reduced coord.    0.4074    0.5000    0.5000
,     Minimum=    9.8788E-14  at reduced coord.    0.1852    0.0000    0.0000
,  Integrated=    2.0000E+00
 ETOT  7  -1.0914587911189    -6.703E-07 5.924E-08 1.312E-01
 scprqt: <Vxc>= -2.1934691E-02 hartree

Anderson update:
  residual square of the potential:    5.1560592646939536E-003
  mixing of old trial potential    : -0.68620416687091335
  predicted best residual square on the line:    2.3070440430502590E-003

 ITER STEP NUMBER     8
 vtorho : nnsclo_now=  1, note that nnsclo,dbl_nnsclo,istep=  0 0  8
 Total charge density [el/Bohr^3]
,     Maximum=    4.5118E-01  at reduced coord.    0.4074    0.5000    0.5000
,     Minimum=    1.1586E-12  at reduced coord.    0.1481    0.0000    0.0000
,  Integrated=    2.0000E+00
 ETOT  8  -1.0914591399667    -3.488E-07 3.519E-08 5.786E-03
 scprqt: <Vxc>= -2.1892878E-02 hartree

Anderson update:
  residual square of the potential:    7.7228747377004866E-004
  mixing of old trial potential    : -0.20894338430856754
  predicted best residual square on the line:    6.3730927215795586E-004

 ITER STEP NUMBER     9
 vtorho : nnsclo_now=  1, note that nnsclo,dbl_nnsclo,istep=  0 0  9
 Total charge density [el/Bohr^3]
,     Maximum=    4.5124E-01  at reduced coord.    0.4074    0.5000    0.5000
,     Minimum=    7.6051E-13  at reduced coord.    0.1481    0.0000    0.0000
,  Integrated=    2.0000E+00
 ETOT  9  -1.0914591959605    -5.599E-08 1.744E-09 1.844E-03
 scprqt: <Vxc>= -2.1877174E-02 hartree

Anderson update:
  residual square of the potential:    2.2826713590487548E-004
  mixing of old trial potential    : -0.47822229376460579
  predicted best residual square on the line:    1.6467444237356195E-004

 ITER STEP NUMBER    10
 vtorho : nnsclo_now=  1, note that nnsclo,dbl_nnsclo,istep=  0 0 10
 Total charge density [el/Bohr^3]
,     Maximum=    4.5127E-01  at reduced coord.    0.4074    0.5000    0.5000
,     Minimum=    6.2893E-13  at reduced coord.    0.1481    0.0000    0.0000
,  Integrated=    2.0000E+00
 ETOT 10  -1.0914592049758    -9.015E-09 4.410E-10 2.157E-03
 scprqt: <Vxc>= -2.1868583E-02 hartree

Anderson update:
  residual square of the potential:    8.7294435320870234E-005
  mixing of old trial potential    : -0.19724287508931398
  predicted best residual square on the line:    8.3361438571094985E-005

 ITER STEP NUMBER    11
 vtorho : nnsclo_now=  1, note that nnsclo,dbl_nnsclo,istep=  0 0 11
 Total charge density [el/Bohr^3]
,     Maximum=    4.5128E-01  at reduced coord.    0.4074    0.5000    0.5000
,     Minimum=    5.9722E-13  at reduced coord.    0.1481    0.0000    0.0000
,  Integrated=    2.0000E+00
 ETOT 11  -1.0914592048280     1.478E-10 1.996E-11 1.658E-03
 scprqt: <Vxc>= -2.1866860E-02 hartree

Anderson update:
  residual square of the potential:    5.2540627438138346E-005
  mixing of old trial potential    :  -1.1055014929688258
  predicted best residual square on the line:    3.9313048758521100E-005

 ITER STEP NUMBER    12
 vtorho : nnsclo_now=  1, note that nnsclo,dbl_nnsclo,istep=  0 0 12
 Total charge density [el/Bohr^3]
,     Maximum=    4.5128E-01  at reduced coord.    0.4074    0.5000    0.5000
,     Minimum=    5.9379E-13  at reduced coord.    0.1481    0.0000    0.0000
,  Integrated=    2.0000E+00
 ETOT 12  -1.0914592043341     4.939E-10 9.108E-12 8.791E-04
 scprqt: <Vxc>= -2.1865922E-02 hartree

Anderson update:
  residual square of the potential:    2.5871907474780467E-005
  mixing of old trial potential    : -0.55508606432772212
  predicted best residual square on the line:    2.1977826867365258E-005

 ITER STEP NUMBER    13
 vtorho : nnsclo_now=  1, note that nnsclo,dbl_nnsclo,istep=  0 0 13
 Total charge density [el/Bohr^3]
,     Maximum=    4.5128E-01  at reduced coord.    0.4074    0.5000    0.5000
,     Minimum=    6.0121E-13  at reduced coord.    0.1481    0.0000    0.0000
,  Integrated=    2.0000E+00
 ETOT 13  -1.0914592044682    -1.340E-10 2.537E-11 3.926E-04
 scprqt: <Vxc>= -2.1866389E-02 hartree

Anderson update:
  residual square of the potential:    1.2954480800631737E-005
  mixing of old trial potential    :  -1.2647737886391475
  predicted best residual square on the line:    7.1000769501382201E-006

 ITER STEP NUMBER    14
 vtorho : nnsclo_now=  1, note that nnsclo,dbl_nnsclo,istep=  0 0 14
 Total charge density [el/Bohr^3]
,     Maximum=    4.5128E-01  at reduced coord.    0.4074    0.5000    0.5000
,     Minimum=    6.2130E-13  at reduced coord.    0.1481    0.0000    0.0000
,  Integrated=    2.0000E+00
 ETOT 14  -1.0914592048507    -3.825E-10 6.373E-11 4.490E-05
 scprqt: <Vxc>= -2.1867653E-02 hartree

Anderson update:
  residual square of the potential:    3.0515259298829432E-006
  mixing of old trial potential    : -0.34337991791374700
  predicted best residual square on the line:    2.3592785294024956E-006

 ITER STEP NUMBER    15
 vtorho : nnsclo_now=  1, note that nnsclo,dbl_nnsclo,istep=  0 0 15
 Total charge density [el/Bohr^3]
,     Maximum=    4.5128E-01  at reduced coord.    0.4074    0.5000    0.5000
,     Minimum=    6.3233E-13  at reduced coord.    0.1481    0.0000    0.0000
,  Integrated=    2.0000E+00
 ETOT 15  -1.0914592049928    -1.421E-10 1.048E-11 7.058E-06
 scprqt: <Vxc>= -2.1868436E-02 hartree

Anderson update:
  residual square of the potential:    9.2767040766514050E-007
  mixing of old trial potential    : -0.53407026804497948
  predicted best residual square on the line:    6.3475533122411412E-007

 ITER STEP NUMBER    16
 vtorho : nnsclo_now=  1, note that nnsclo,dbl_nnsclo,istep=  0 0 16
 Total charge density [el/Bohr^3]
,     Maximum=    4.5128E-01  at reduced coord.    0.4074    0.5000    0.5000
,     Minimum=    6.3948E-13  at reduced coord.    0.1481    0.0000    0.0000
,  Integrated=    2.0000E+00
 ETOT 16  -1.0914592050318    -3.902E-11 2.874E-12 5.342E-06
 scprqt: <Vxc>= -2.1868964E-02 hartree

Anderson update:
  residual square of the potential:    3.0576473284226121E-007
  mixing of old trial potential    : -0.21056679025026509
  predicted best residual square on the line:    2.8636171101752531E-007

 ITER STEP NUMBER    17
 vtorho : nnsclo_now=  1, note that nnsclo,dbl_nnsclo,istep=  0 0 17
 Total charge density [el/Bohr^3]
,     Maximum=    4.5127E-01  at reduced coord.    0.4074    0.5000    0.5000
,     Minimum=    6.4190E-13  at reduced coord.    0.1481    0.0000    0.0000
,  Integrated=    2.0000E+00
 ETOT 17  -1.0914592050339    -2.104E-12 1.197E-13 4.518E-06
 scprqt: <Vxc>= -2.1869107E-02 hartree

Anderson update:
  residual square of the potential:    1.6744525773655140E-007
  mixing of old trial potential    : -0.82770742415428145
  predicted best residual square on the line:    1.3175870037579861E-007

 ITER STEP NUMBER    18
 vtorho : nnsclo_now=  1, note that nnsclo,dbl_nnsclo,istep=  0 0 18
 Total charge density [el/Bohr^3]
,     Maximum=    4.5127E-01  at reduced coord.    0.4074    0.5000    0.5000
,     Minimum=    6.4276E-13  at reduced coord.    0.1481    0.0000    0.0000
,  Integrated=    2.0000E+00
 ETOT 18  -1.0914592050330     9.290E-13 5.256E-14 3.038E-06
 scprqt: <Vxc>= -2.1869197E-02 hartree

Anderson update:
  residual square of the potential:    8.9175830537146522E-008
  mixing of old trial potential    : -0.45886576037991023
  predicted best residual square on the line:    8.0582220259570709E-008

 ITER STEP NUMBER    19
 vtorho : nnsclo_now=  1, note that nnsclo,dbl_nnsclo,istep=  0 0 19
 Total charge density [el/Bohr^3]
,     Maximum=    4.5127E-01  at reduced coord.    0.4074    0.5000    0.5000
,     Minimum=    6.4280E-13  at reduced coord.    0.1481    0.0000    0.0000
,  Integrated=    2.0000E+00
 ETOT 19  -1.0914592050326     4.108E-13 2.396E-14 1.771E-06
 scprqt: <Vxc>= -2.1869200E-02 hartree

 At SCF step   19, etot is converged : 
  for the second time, diff in etot=  4.108E-13 < toldfe=  1.000E-12
forstrnps: loop on k-points and spins done in parallel
  strhar : before mpi_comm, harstr=   6.4675985061472233E-004   6.9202187600337121E-004   6.9202187600337934E-004  -4.2351647362715017E-021  -8.4703294725430034E-022   8.4703294725430034E-022
  strhar : after mpi_comm, harstr=   6.4675985061472233E-004   6.9202187600337121E-004   6.9202187600337934E-004  -4.2351647362715017E-021  -8.4703294725430034E-022   8.4703294725430034E-022
  strhar : ehart,ucvol=   1.0908419573454584        3375.0000000000000     

 Cartesian components of stress tensor (hartree/bohr^3)
  sigma(1 1)= -9.70487306E-05  sigma(3 2)=  0.00000000E+00
  sigma(2 2)=  1.37879553E-06  sigma(3 1)=  0.00000000E+00
  sigma(3 3)=  1.37879553E-06  sigma(2 1)=  0.00000000E+00

   1  2  2  1  2  1  1  2  1  2  2  1  2  1  1  2
   2  1  1  2  1  2  2  1  2  1  1  2  1  2  2  1
 ioarr: writing density data
ioarr: file name is 0D_H2_o_DS1_DEN
ioarr: data written to disk file 0D_H2_o_DS1_DEN
================================================================================

 ----iterations are completed or convergence reached----


 outwf: write wavefunction to file 0D_H2_o_DS1_WFK, with accesswff -1
 leave_test : synchronization done...
 outwf with iomode: -1, cpu:     0.00, wall:     0.00

 === Gap info ===
  >>>> For spin  1
   Minimum optical gap =  11.3174 [eV], located at k-point      :   0.0000  0.0000  0.0000
   Fundamental gap     =  11.3174 [eV], Top of valence bands at :   0.0000  0.0000  0.0000
                                        Bottom of conduction at :   0.0000  0.0000  0.0000

 Cartesian components of stress tensor (hartree/bohr^3)
  sigma(1 1)= -9.70487306E-05  sigma(3 2)=  0.00000000E+00
  sigma(2 2)=  1.37879553E-06  sigma(3 1)=  0.00000000E+00
  sigma(3 3)=  1.37879553E-06  sigma(2 1)=  0.00000000E+00

-Cartesian components of stress tensor (GPa)         [Pressure=  9.2471E-01 GPa]
- sigma(1 1)= -2.85527175E+00  sigma(3 2)=  0.00000000E+00
- sigma(2 2)=  4.05655580E-02  sigma(3 1)=  0.00000000E+00
- sigma(3 3)=  4.05655580E-02  sigma(2 1)=  0.00000000E+00

================================================================================
== DATASET  2 ==================================================================
-   nproc =    1

 mkfilename : getwfk/=0, take file _WFK from output of DATASET   1.

 mkfilename : getden/=0, take file _DEN from output of DATASET   1.

 setmqgrid : COMMENT -
  The number of points "mqgrid" in reciprocal space used for the
  description of the pseudopotentials has been set automatically
  by abinit to :     3001.

 getdim_nloc : COMMENT -
  Despite there is only a local part to pseudopotential(s),
  lmnmax and lnmax are set to 1.

 getdim_nloc : deduce lmnmax  =   1, lnmax  =   1,
                      lmnmaxso=   1, lnmaxso=   1.
 Exchange-correlation functional for the present dataset will be:
  LDA: new Teter (4/93) with spin-polarized option - ixc=1
 Citation for XC functional:
  S. Goedecker, M. Teter, J. Huetter, PRB 54, 1703 (1996)

 Unit cell volume ucvol=  3.3750000E+03 bohr^3
 Angles (23,13,12)=  9.00000000E+01  9.00000000E+01  9.00000000E+01 degrees

 getcut: wavevector=  0.0000  0.0000  0.0000  ngfft=  54  54  54
         ecut(hartree)=     14.000   => boxcut(ratio)=   2.13734
   1  1  1  1  1  1  1  1
   2  2  2  2  2  2  2  2
inwffil: examining the header of disk file 0D_H2_o_DS1_WFK

================================================================================

          - hdr_check: checking restart file header for consistency -


        current calculation                         restart file
        -------------------                         ------------

  calculation expects a wf_planewave    |  input file contains a wf_planewave
. ABINIT  code version 7.4.1            |  ABINIT  code version 7.4.1
. date 20180724 bantot   50 natom    2  |  date 20180724 bantot    4 natom    2
  nkpt   1 nsym  8 ngfft  54,  54,  54  |  nkpt   1 nsym 16 ngfft  54,  54,  54
  ntypat  1 ecut_eff  14.0000000        |  ntypat  1 ecut_eff  14.0000000
  usepaw  0                             |  usepaw  0
  usewvl  0                             |  usewvl  0
  rprimd:                               |  rprimd:
    15.0000000   0.0000000   0.0000000  |    15.0000000   0.0000000   0.0000000
     0.0000000  15.0000000   0.0000000  |     0.0000000  15.0000000   0.0000000
     0.0000000   0.0000000  15.0000000  |     0.0000000   0.0000000  15.0000000

 hdr_check: WARNING -
  input nsym=     8 not equal disk file nsym=    16
  nband:                                |  nband:
    50                                  |     4

 hdr_check: WARNING -
  kpt num    1 input nband=      50 not equal disk file nband=       4
  typat:                                |  typat:
    1  1                                |    1  1
  so_psp  :                             |  so_psp  :
    1                                   |    1
  istwfk:                               |  istwfk:
    1                                   |    2

 hdr_check: WARNING -
  For k point number       1 input istwfk=  1 not equal disk file istwfk=  2
  kpt:                                  |  kpt:
     0.0000000   0.0000000   0.0000000  |     0.0000000   0.0000000   0.0000000
  wtk:                                  |  wtk:
    1.000                               |    1.000
   znucl:                               |   znucl:
    1.00                                |    1.00
  pseudopotential atom type  1:         |  pseudopotential atom type  1:
  pspso   0 pspxc   1                   |  pspso   0 pspxc   1
  pspdat 940714 pspcod    1 zion   1.0  |  pspdat 940714 pspcod    1 zion   1.0
  xred:                                 |  xred:
     0.4333333   0.5000000   0.5000000  |     0.4333333   0.5000000   0.5000000
     0.3666667   0.5000000   0.5000000  |     0.3666667   0.5000000   0.5000000

 hdr_check: WARNING -
  Restart of self-consistent calculation need translated wavefunctions.
  Indeed, critical differences between current calculation and
  restart file have been detected in:
        * the format of wavefunctions (istwfk)
================================================================================
-inwffil : will read wavefunctions from disk file 0D_H2_o_DS1_WFK
 initwf : disk file gives npw=  4193 nband=     4 for kpt number=    1
 initwf :     4 bands have been initialized from disk
- newkpt: read input wf with ikpt,npw=   1    4193, make ikpt,npw=   1    8385
 wfconv:    46 bands initialized randomly with npw=  8385, for ikpt=     1

 ioarr: reading density data
ioarr: file name is 0D_H2_o_DS1_DEN

================================================================================

          - hdr_check: checking restart file header for consistency -


        current calculation                         restart file
        -------------------                         ------------

  calculation expects a density         |  input file contains a density
. ABINIT  code version 7.4.1            |  ABINIT  code version 7.4.1
. date 20180724 bantot   50 natom    2  |  date 20180724 bantot    4 natom    2
  nkpt   1 nsym  8 ngfft  54,  54,  54  |  nkpt   1 nsym 16 ngfft  54,  54,  54
  ntypat  1 ecut_eff  14.0000000        |  ntypat  1 ecut_eff  14.0000000
  usepaw  0                             |  usepaw  0
  usewvl  0                             |  usewvl  0
  rprimd:                               |  rprimd:
    15.0000000   0.0000000   0.0000000  |    15.0000000   0.0000000   0.0000000
     0.0000000  15.0000000   0.0000000  |     0.0000000  15.0000000   0.0000000
     0.0000000   0.0000000  15.0000000  |     0.0000000   0.0000000  15.0000000

 hdr_check: WARNING -
  input nsym=     8 not equal disk file nsym=    16
  nband:                                |  nband:
    50                                  |     4
  typat:                                |  typat:
    1  1                                |    1  1
  so_psp  :                             |  so_psp  :
    1                                   |    1
  istwfk:                               |  istwfk:
    1                                   |    2

 hdr_check: WARNING -
  For k point number       1 input istwfk=  1 not equal disk file istwfk=  2
  kpt:                                  |  kpt:
     0.0000000   0.0000000   0.0000000  |     0.0000000   0.0000000   0.0000000
  wtk:                                  |  wtk:
    1.000                               |    1.000
   znucl:                               |   znucl:
    1.00                                |    1.00
  pseudopotential atom type  1:         |  pseudopotential atom type  1:
  pspso   0 pspxc   1                   |  pspso   0 pspxc   1
  pspdat 940714 pspcod    1 zion   1.0  |  pspdat 940714 pspcod    1 zion   1.0
  xred:                                 |  xred:
     0.4333333   0.5000000   0.5000000  |     0.4333333   0.5000000   0.5000000
     0.3666667   0.5000000   0.5000000  |     0.3666667   0.5000000   0.5000000
 hdr_check:  Density/Potential file is OK for restart of calculation
================================================================================
ioarr: data read from disk file 0D_H2_o_DS1_DEN

================================================================================

 getcut: wavevector=  0.0000  0.0000  0.0000  ngfft=  54  54  54
         ecut(hartree)=     14.000   => boxcut(ratio)=   2.13734

 ewald : nr and ng are    2 and   15
 vtorho : nnsclo_now=***, note that nnsclo,dbl_nnsclo,istep=  0 0  1
   1  1  1  1  1  1  1  1
   2  2  2  2  2  2  2  2
 ioarr: writing density data
ioarr: file name is 0D_H2_o_DS2_DEN
ioarr: data written to disk file 0D_H2_o_DS2_DEN

======================================================================
 Calculating and writing out Kohn-Sham electronic Structure file
 Using conjugate gradient wavefunctions and energies (kssform=3)

 Sorting g-vecs for an output of states on an unique "big" PW basis.

 remove_inversion: WARNING - 
 Removing inversion related symmetrie from initial set
 The inversion was not found in the symmetries list.
 Program uses the original set of symmetries
 Since the number of g's to be written on file
 was 0 or too large, it has been set to the max. value.,
 computed from the union of the sets of G vectors for the different k-points.
 Number of g-vectors written on file is:  8385
 Number of bands written on file is:    50

 Total amount of disk space required by _KSS file =     6.63 Mb.
  Subdivided into : 
  Header             =     0.10 Mb.
  KB elements        =     0.13 Mb.
  Wavefunctions (PW) =     6.40 Mb.
  PAW projectors     =     0.00 Mb.


 Opening file for KS structure output: 0D_H2_o_DS2_KSS
 number of Gamma centered plane waves   8385
 number of Gamma centered shells   1269
 number of bands     50
 maximum angular momentum components      1
 number of symmetry operations  8 (without inversion)

 k-point   1
 Eigenvalues in Hartree for ikpt=   1
   1     -0.4229 -0.0069  0.0500  0.0599  0.0599  0.0779  0.0788  0.0894  0.1272
          0.1377  0.1377  0.1582  0.1582  0.1592  0.1656  0.1665  0.1675  0.1675
          0.1677  0.1931  0.2311  0.2393  0.2393  0.2468  0.2468  0.2477  0.2500
          0.2740  0.3045  0.3174  0.3174  0.3250  0.3274  0.3558  0.3722  0.3858
          0.3858  0.4072  0.4096  0.4096  0.4102  0.4115  0.4195  0.4196  0.4196
          0.4236  0.4246  0.4246  0.4275  0.4275
 Writing out eigenvalues/vectors for ikpt=  1
 Occupation numbers for ikpt=  1
   1      2.0000  0.0000  0.0000  0.0000  0.0000  0.0000  0.0000  0.0000  0.0000
          0.0000  0.0000  0.0000  0.0000  0.0000  0.0000  0.0000  0.0000  0.0000
          0.0000  0.0000  0.0000  0.0000  0.0000  0.0000  0.0000  0.0000  0.0000
          0.0000  0.0000  0.0000  0.0000  0.0000  0.0000  0.0000  0.0000  0.0000
          0.0000  0.0000  0.0000  0.0000  0.0000  0.0000  0.0000  0.0000  0.0000
          0.0000  0.0000  0.0000  0.0000  0.0000
 Test on the normalization of the wavefunctions
  min sum_G |a(n,k,G)| =  1.000000
  max sum_G |a(n,k,G)| =  1.000000
 Test on the orthogonalization of the wavefunctions
  min sum_G a(n,k,G)a(n',k,G) =  0.000000
  max sum_G a(n,k,G)a(n',k,G) =  0.000000

================================================================================

 ----iterations are completed or convergence reached----


 outwf: write wavefunction to file 0D_H2_o_DS2_WFK, with accesswff -1
 leave_test : synchronization done...
 outwf with iomode: -1, cpu:     0.02, wall:     0.02

 === Gap info ===
  >>>> For spin  1
   Minimum optical gap =   1.5492 [eV], located at k-point      :   0.0000  0.0000  0.0000
   Fundamental gap     =   1.5492 [eV], Top of valence bands at :   0.0000  0.0000  0.0000
                                        Bottom of conduction at :   0.0000  0.0000  0.0000

== END DATASET(S) ==============================================================
================================================================================
  
 -outvars: echo values of variables after computation  --------
            acell      1.5000000000E+01  1.5000000000E+01  1.5000000000E+01 Bohr
              amu      1.00794000E+00
             ecut      1.40000000E+01 Hartree
           etotal1    -1.0914592050E+00
            fcart1     3.2883987570E-01 -0.0000000000E+00 -0.0000000000E+00
                      -3.2883987570E-01 -0.0000000000E+00 -0.0000000000E+00
           getden1          0
           getden2          1
           getwfk1          0
           getwfk2          1
             iscf1          3
             iscf2         -2
           istwfk1       2
           istwfk2       1
           jdtset        1    2
         kptrlatt        1    0    0      0    1    0      0    0    1
          kptrlen      1.50000000E+04
          kssform1          1
          kssform2          3
P           mkmem           1
            natom           2
            nband1          4
            nband2         50
         nbandkss1          0
         nbandkss2         50
           nbdbuf1          0
           nbdbuf2          2
           ndtset           2
            ngfft          54      54      54
             nkpt           1
            nstep1       1000
            nstep2       3000
             nsym1         16
             nsym2          8
           ntypat           1
              occ      2.000000  0.000000  0.000000  0.000000
          spgroup         123
           strten1    -9.7048730643E-05  1.3787955255E-06  1.3787955255E-06
                       0.0000000000E+00  0.0000000000E+00  0.0000000000E+00
           symafm1       1    1    1    1    1    1    1    1    1    1
                         1    1    1    1    1    1
           symafm2       1    1    1    1    1    1    1    1
        symmorphi1          1
        symmorphi2          0
           symrel1     1  0  0   0  1  0   0  0  1      -1  0  0   0 -1  0   0  0 -1
                      -1  0  0   0  1  0   0  0 -1       1  0  0   0 -1  0   0  0  1
                      -1  0  0   0 -1  0   0  0  1       1  0  0   0  1  0   0  0 -1
                       1  0  0   0 -1  0   0  0 -1      -1  0  0   0  1  0   0  0  1
                       1  0  0   0  0  1   0  1  0      -1  0  0   0  0 -1   0 -1  0
                      -1  0  0   0  0  1   0 -1  0       1  0  0   0  0 -1   0  1  0
                      -1  0  0   0  0 -1   0  1  0       1  0  0   0  0  1   0 -1  0
                       1  0  0   0  0 -1   0 -1  0      -1  0  0   0  0  1   0  1  0
           symrel2     1  0  0   0  1  0   0  0  1       1  0  0   0 -1  0   0  0  1
                       1  0  0   0  1  0   0  0 -1       1  0  0   0 -1  0   0  0 -1
                       1  0  0   0  0  1   0  1  0       1  0  0   0  0 -1   0  1  0
                       1  0  0   0  0  1   0 -1  0       1  0  0   0  0 -1   0 -1  0
            tnons1     0.0000000  0.0000000  0.0000000    -0.2000000  0.0000000  0.0000000
                      -0.2000000  0.0000000  0.0000000     0.0000000  0.0000000  0.0000000
                      -0.2000000  0.0000000  0.0000000     0.0000000  0.0000000  0.0000000
                       0.0000000  0.0000000  0.0000000    -0.2000000  0.0000000  0.0000000
                       0.0000000  0.0000000  0.0000000    -0.2000000  0.0000000  0.0000000
                      -0.2000000  0.0000000  0.0000000     0.0000000  0.0000000  0.0000000
                      -0.2000000  0.0000000  0.0000000     0.0000000  0.0000000  0.0000000
                       0.0000000  0.0000000  0.0000000    -0.2000000  0.0000000  0.0000000
            tnons2     0.0000000  0.0000000  0.0000000     0.0000000  0.0000000  0.0000000
                       0.0000000  0.0000000  0.0000000     0.0000000  0.0000000  0.0000000
                       0.0000000  0.0000000  0.0000000     0.0000000  0.0000000  0.0000000
                       0.0000000  0.0000000  0.0000000     0.0000000  0.0000000  0.0000000
           toldfe1     1.00000000E-12 Hartree
           toldfe2     0.00000000E+00 Hartree
           tolwfr1     0.00000000E+00
           tolwfr2     1.00000000E-10
            typat      1  1
           xangst      3.4396518558E+00  3.9688290644E+00  3.9688290644E+00
                       2.9104746472E+00  3.9688290644E+00  3.9688290644E+00
            xcart      6.5000000000E+00  7.5000000000E+00  7.5000000000E+00
                       5.5000000000E+00  7.5000000000E+00  7.5000000000E+00
             xred      4.3333333333E-01  5.0000000000E-01  5.0000000000E-01
                       3.6666666667E-01  5.0000000000E-01  5.0000000000E-01
            znucl        1.00000

================================================================================
  

================================================================================

 Suggested references for the acknowledgment of ABINIT usage.

 The users of ABINIT have little formal obligations with respect to the ABINIT group
 (those specified in the GNU General Public License, http://www.gnu.org/copyleft/gpl.txt).
 However, it is common practice in the scientific literature,
 to acknowledge the efforts of people that have made the research possible.
 In this spirit, please find below suggested citations of work written by ABINIT developers,
 corresponding to implementations inside of ABINIT that you have used in the present run.
 Note also that it will be of great value to readers of publications presenting these results,
 to read papers enabling them to understand the theoretical formalism and details
 of the ABINIT implementation.
 For information on why they are suggested, see also http://www.abinit.org/about/?text=acknowledgments.

 [1] ABINIT : First-principles approach of materials and nanosystem properties.
 X. Gonze, B. Amadon, P.-M. Anglade, J.-M. Beuken, F. Bottin, P. Boulanger, F. Bruneval,
 D. Caliste, R. Caracas, M. Cote, T. Deutsch, L. Genovese, Ph. Ghosez, M. Giantomassi
 S. Goedecker, D.R. Hamann, P. Hermet, F. Jollet, G. Jomard, S. Leroux, M. Mancini, S. Mazevet,
 M.J.T. Oliveira, G. Onida, Y. Pouillon, T. Rangel, G.-M. Rignanese, D. Sangalli, R. Shaltaf,
 M. Torrent, M.J. Verstraete, G. Zerah, J.W. Zwanziger
 Computer Phys. Comm. 180, 2582-2615 (2009).
 Comment : the third generic paper describing the ABINIT project.
 Note that a version of this paper, that is not formatted for Computer Phys. Comm. 
 is available at http://www.abinit.org/about/ABINIT_CPC_v10.pdf .
 The licence allows the authors to put it on the Web.

 [2] A brief introduction to the ABINIT software package.
 X. Gonze, G.-M. Rignanese, M. Verstraete, J.-M. Beuken, Y. Pouillon, R. Caracas, F. Jollet,
 M. Torrent, G. Zerah, M. Mikami, Ph. Ghosez, M. Veithen, J.-Y. Raty, V. Olevano, F. Bruneval,
 L. Reining, R. Godby, G. Onida, D.R. Hamann, and D.C. Allan.
 Z. Kristallogr. 220, 558-562 (2005).
 Comment : the second generic paper describing the ABINIT project. Note that this paper
 should be cited especially if you are using the GW part of ABINIT, as several authors
 of this part are not in the list of authors of the first or third paper.
 The .pdf of the latter paper is available at http://www.abinit.org/about/zfk_0505-06_558-562.pdf.
 Note that it should not redistributed (Copyright by Oldenburg Wissenshaftverlag,
 the licence allows the authors to put it on the Web).


 And optionally :

 [3] First-principles computation of material properties : the ABINIT software project. 
 X. Gonze, J.-M. Beuken, R. Caracas, F. Detraux, M. Fuchs, G.-M. Rignanese, L. Sindic,
 M. Verstraete, G. Zerah, F. Jollet, M. Torrent, A. Roy, M. Mikami, Ph. Ghosez, J.-Y. Raty, D.C. Allan.
 Computational Materials Science 25, 478-492 (2002). http://dx.doi.org/10.1016/S0927-0256(02)00325-7
 Comment : the original paper describing the ABINIT project.

 [4] Fast radix 2, 3, 4 and 5 kernels for Fast Fourier Transformations
 on computers with overlapping multiply-add instructions.
 S. Goedecker, SIAM J. on Scientific Computing 18, 1605 (1997).
 Proc.   0 individual time (sec): cpu=         24.1  wall=         24.3

 Calculation completed.
.Delivered   13 WARNINGs and  10 COMMENTs to log file.
