
     Program PWSCF v.6.0 (svn rev. 13079) starts on 19Oct2017 at 12:41:27 

     This program is part of the open-source Quantum ESPRESSO suite
     for quantum simulation of materials; please cite
         "P. Giannozzi et al., J. Phys.:Condens. Matter 21 395502 (2009);
          URL http://www.quantum-espresso.org", 
     in publications or presentations arising from this work. More details at
     http://www.quantum-espresso.org/quote

     Parallel version (MPI), running on     1 processors
     Waiting for input...
     Reading input from standard input

     Current dimensions of program PWSCF are:
     Max number of different atomic species (ntypx) = 10
     Max number of k-points (npk) =  40000
     Max angular momentum in pseudopotentials (lmaxx) =  3

     Atomic positions and unit cell read from directory:
     ./Ar.save/


     gamma-point specific algorithms are used

     Subspace diagonalization in iterative solution of the eigenvalue problem:
     a serial algorithm will be used


     G-vector sticks info
     --------------------
     sticks:   dense  smooth     PW     G-vecs:    dense   smooth      PW
     Sum        9737    9737   2433               724295   724295   90447



     bravais-lattice index     =            1
     lattice parameter (alat)  =      35.0000  a.u.
     unit-cell volume          =   42875.0000 (a.u.)^3
     number of atoms/cell      =            1
     number of atomic types    =            1
     number of electrons       =         8.00
     number of Kohn-Sham states=            6
     kinetic-energy cutoff     =      25.0000  Ry
     charge density cutoff     =     100.0000  Ry
     Exchange-correlation      =  SLA  PZ   NOGX NOGC ( 1  1  0  0 0 0)

     celldm(1)=  35.000000  celldm(2)=   0.000000  celldm(3)=   0.000000
     celldm(4)=   0.000000  celldm(5)=   0.000000  celldm(6)=   0.000000

     crystal axes: (cart. coord. in units of alat)
               a(1) = (   1.000000   0.000000   0.000000 )  
               a(2) = (   0.000000   1.000000   0.000000 )  
               a(3) = (   0.000000   0.000000   1.000000 )  

     reciprocal axes: (cart. coord. in units 2 pi/alat)
               b(1) = (  1.000000  0.000000  0.000000 )  
               b(2) = (  0.000000  1.000000  0.000000 )  
               b(3) = (  0.000000  0.000000  1.000000 )  


     PseudoPot. # 1 for Ar read from file:
     ./psps/Ar.pz-rrkj.UPF
     MD5 check sum: d89ce2692885da7fe9b9d8f94428612f
     Pseudo is Norm-conserving, Zval =  8.0
     Generated by new atomic code, or converted to UPF format
     Using radial grid of  967 points,  2 beta functions with: 
                l(1) =   0
                l(2) =   1

     atomic species   valence    mass     pseudopotential
        Ar             8.00    39.95000     Ar( 1.00)

     48 Sym. Ops., with inversion, found



   Cartesian axes

     site n.     atom                  positions (alat units)
         1           Ar  tau(   1) = (   0.0000000   0.0000000   0.0000000  )

     number of k points=     1
                       cart. coord. in units 2pi/alat
        k(    1) = (   0.0000000   0.0000000   0.0000000), wk =   2.0000000

     Dense  grid:   362148 G-vectors     FFT dimensions: ( 120, 120, 120)

     Estimated max dynamical RAM per process >     180.07Mb

     The potential is recalculated from file :
     ./Ar.save/charge-density.dat

     Starting wfc are    4 randomized atomic wfcs +    2 random wfc

     Band Structure Calculation
     Davidson diagonalization with overlap
     WARNING:     1 eigenvalues not converged in regterg

     ethr =  1.00E-05,  avg # of iterations = 31.0

     total cpu time spent up to now is        3.7 secs

     End of band structure calculation

          k = 0.0000 0.0000 0.0000 ( 45224 PWs)   bands (ev):

   -23.8950 -10.3686 -10.3686 -10.3686  -0.2707   0.1126

     highest occupied, lowest unoccupied level (ev):   -10.3686   -0.2707

     Writing output data file Ar.save

     init_run     :      0.50s CPU      0.56s WALL (       1 calls)
     electrons    :      3.14s CPU      3.06s WALL (       1 calls)

     Called by init_run:
     wfcinit      :      0.00s CPU      0.00s WALL (       1 calls)
     potinit      :      0.24s CPU      0.27s WALL (       1 calls)

     Called by electrons:
     c_bands      :      3.14s CPU      3.05s WALL (       1 calls)
     v_of_rho     :      0.16s CPU      0.17s WALL (       1 calls)

     Called by c_bands:
     init_us_2    :      0.01s CPU      0.01s WALL (       1 calls)
     regterg      :      2.96s CPU      2.84s WALL (       2 calls)

     Called by sum_band:

     Called by *egterg:
     h_psi        :      2.62s CPU      2.74s WALL (      34 calls)
     g_psi        :      0.02s CPU      0.02s WALL (      31 calls)
     rdiaghg      :      0.00s CPU      0.00s WALL (      32 calls)

     Called by h_psi:
     h_psi:pot    :      2.61s CPU      2.72s WALL (      34 calls)
     h_psi:calbec :      0.02s CPU      0.02s WALL (      34 calls)
     vloc_psi     :      2.55s CPU      2.68s WALL (      34 calls)
     add_vuspsi   :      0.03s CPU      0.01s WALL (      34 calls)

     General routines
     calbec       :      0.02s CPU      0.02s WALL (      34 calls)
     fft          :      0.10s CPU      0.11s WALL (       3 calls)
     fftw         :      2.21s CPU      2.34s WALL (      94 calls)
     davcio       :      0.00s CPU      0.01s WALL (       2 calls)

     Parallel routines
     fft_scatter  :      0.25s CPU      0.26s WALL (      97 calls)

     PWSCF        :     3.78s CPU         3.81s WALL


   This run was terminated on:  12:41:31  19Oct2017            

=------------------------------------------------------------------------------=
   JOB DONE.
=------------------------------------------------------------------------------=
