
     Program PWSCF v.5.1 starts on 26Jul2018 at 17:24:33 

     This program is part of the open-source Quantum ESPRESSO suite
     for quantum simulation of materials; please cite
         "P. Giannozzi et al., J. Phys.:Condens. Matter 21 395502 (2009);
          URL http://www.quantum-espresso.org", 
     in publications or presentations arising from this work. More details at
     http://www.quantum-espresso.org/quote

     Parallel version (MPI), running on     1 processors
     Waiting for input...
     Reading input from standard input
     Message from routine read_cards :
     DEPRECATED: no units specified in ATOMIC_POSITIONS card
     Message from routine read_cards :
     ATOMIC_POSITIONS: units set to alat

     Current dimensions of program PWSCF are:
     Max number of different atomic species (ntypx) = 10
     Max number of k-points (npk) =  40000
     Max angular momentum in pseudopotentials (lmaxx) =  3

     Atomic positions and unit cell read from directory:
     ./Fe_nscf_e45_k16_nb20_so.save/


     Fixed quantization axis for GGA:     0.000000    0.000000    1.000000

     Subspace diagonalization in iterative solution of the eigenvalue problem:
     a serial algorithm will be used


     G-vector sticks info
     --------------------
     sticks:   dense  smooth     PW     G-vecs:    dense   smooth      PW
     Sum         291     291     99                 3151     3151     627

     Generating pointlists ...
     new r_m :   0.3572 (alat units)  1.9362 (a.u.) for type    1


     bravais-lattice index     =            3
     lattice parameter (alat)  =       5.4200  a.u.
     unit-cell volume          =      79.6100 (a.u.)^3
     number of atoms/cell      =            1
     number of atomic types    =            1
     number of electrons       =         8.00
     number of Kohn-Sham states=           20
     kinetic-energy cutoff     =      45.0000  Ry
     charge density cutoff     =     180.0000  Ry
     Exchange-correlation      = PBE ( 1  4  3  4 0)
     Noncollinear calculation with spin-orbit


     celldm(1)=   5.420000  celldm(2)=   0.000000  celldm(3)=   0.000000
     celldm(4)=   0.000000  celldm(5)=   0.000000  celldm(6)=   0.000000

     crystal axes: (cart. coord. in units of alat)
               a(1) = (   0.500000   0.500000   0.500000 )  
               a(2) = (  -0.500000   0.500000   0.500000 )  
               a(3) = (  -0.500000  -0.500000   0.500000 )  

     reciprocal axes: (cart. coord. in units 2 pi/alat)
               b(1) = (  1.000000  0.000000  1.000000 )  
               b(2) = ( -1.000000  1.000000  0.000000 )  
               b(3) = (  0.000000 -1.000000  1.000000 )  


     PseudoPot. # 1 for Fe read from file:
     ./Fe.rel-pbe-n-nc.UPF
     MD5 check sum: 94258d60e67ccf79570366bad73e55f4
     Pseudo is Norm-conserving + core correction, Zval =  8.0
     Generated using "atomic" code by A. Dal Corso  v.5.0.2 svn rev. 10042M
     Using radial grid of 1191 points,  4 beta functions with: 
                l(1) =   1
                l(2) =   1
                l(3) =   2
                l(4) =   2

     atomic species   valence    mass     pseudopotential
        Fe             8.00    55.84500     Fe( 1.00)

     16 Sym. Ops., with inversion, found


                                    s                        frac. trans.

      isym =  1     identity                                     

 Time Reversal            0
 cryst.   s( 1) = (     1          0          0      )
                  (     0          1          0      )
                  (     0          0          1      )

 cart.    s( 1) = (  1.0000000  0.0000000  0.0000000 )
                  (  0.0000000  1.0000000  0.0000000 )
                  (  0.0000000  0.0000000  1.0000000 )


      isym =  2     180 deg rotation - cart. axis [0,0,1]        

 Time Reversal            0
 cryst.   s( 2) = (     0          0          1      )
                  (     1         -1          1      )
                  (     1          0          0      )

 cart.    s( 2) = ( -1.0000000  0.0000000  0.0000000 )
                  (  0.0000000 -1.0000000  0.0000000 )
                  (  0.0000000  0.0000000  1.0000000 )


      isym =  3     180 deg rotation - cart. axis [0,1,0]        

 Time Reversal            1
 cryst.   s( 3) = (    -1          1         -1      )
                  (     0          0         -1      )
                  (     0         -1          0      )

 cart.    s( 3) = ( -1.0000000  0.0000000  0.0000000 )
                  (  0.0000000  1.0000000  0.0000000 )
                  (  0.0000000  0.0000000 -1.0000000 )


      isym =  4     180 deg rotation - cart. axis [1,0,0]        

 Time Reversal            1
 cryst.   s( 4) = (     0         -1          0      )
                  (    -1          0          0      )
                  (    -1          1         -1      )

 cart.    s( 4) = (  1.0000000  0.0000000  0.0000000 )
                  (  0.0000000 -1.0000000  0.0000000 )
                  (  0.0000000  0.0000000 -1.0000000 )


      isym =  5     180 deg rotation - cart. axis [1,1,0]        

 Time Reversal            1
 cryst.   s( 5) = (     0          0         -1      )
                  (     0         -1          0      )
                  (    -1          0          0      )

 cart.    s( 5) = (  0.0000000  1.0000000  0.0000000 )
                  (  1.0000000  0.0000000  0.0000000 )
                  (  0.0000000  0.0000000 -1.0000000 )


      isym =  6     180 deg rotation - cart. axis [1,-1,0]       

 Time Reversal            1
 cryst.   s( 6) = (    -1          0          0      )
                  (    -1          1         -1      )
                  (     0          0         -1      )

 cart.    s( 6) = (  0.0000000 -1.0000000  0.0000000 )
                  ( -1.0000000  0.0000000  0.0000000 )
                  (  0.0000000  0.0000000 -1.0000000 )


      isym =  7      90 deg rotation - cart. axis [0,0,-1]       

 Time Reversal            0
 cryst.   s( 7) = (     1         -1          1      )
                  (     1          0          0      )
                  (     0          1          0      )

 cart.    s( 7) = (  0.0000000  1.0000000  0.0000000 )
                  ( -1.0000000  0.0000000  0.0000000 )
                  (  0.0000000  0.0000000  1.0000000 )


      isym =  8      90 deg rotation - cart. axis [0,0,1]        

 Time Reversal            0
 cryst.   s( 8) = (     0          1          0      )
                  (     0          0          1      )
                  (     1         -1          1      )

 cart.    s( 8) = (  0.0000000 -1.0000000  0.0000000 )
                  (  1.0000000  0.0000000  0.0000000 )
                  (  0.0000000  0.0000000  1.0000000 )


      isym =  9     inversion                                    

 Time Reversal            0
 cryst.   s( 9) = (    -1          0          0      )
                  (     0         -1          0      )
                  (     0          0         -1      )

 cart.    s( 9) = ( -1.0000000  0.0000000  0.0000000 )
                  (  0.0000000 -1.0000000  0.0000000 )
                  (  0.0000000  0.0000000 -1.0000000 )


      isym = 10     inv. 180 deg rotation - cart. axis [0,0,1]   

 Time Reversal            0
 cryst.   s(10) = (     0          0         -1      )
                  (    -1          1         -1      )
                  (    -1          0          0      )

 cart.    s(10) = (  1.0000000  0.0000000  0.0000000 )
                  (  0.0000000  1.0000000  0.0000000 )
                  (  0.0000000  0.0000000 -1.0000000 )


      isym = 11     inv. 180 deg rotation - cart. axis [0,1,0]   

 Time Reversal            1
 cryst.   s(11) = (     1         -1          1      )
                  (     0          0          1      )
                  (     0          1          0      )

 cart.    s(11) = (  1.0000000  0.0000000  0.0000000 )
                  (  0.0000000 -1.0000000  0.0000000 )
                  (  0.0000000  0.0000000  1.0000000 )


      isym = 12     inv. 180 deg rotation - cart. axis [1,0,0]   

 Time Reversal            1
 cryst.   s(12) = (     0          1          0      )
                  (     1          0          0      )
                  (     1         -1          1      )

 cart.    s(12) = ( -1.0000000  0.0000000  0.0000000 )
                  (  0.0000000  1.0000000  0.0000000 )
                  (  0.0000000  0.0000000  1.0000000 )


      isym = 13     inv. 180 deg rotation - cart. axis [1,1,0]   

 Time Reversal            1
 cryst.   s(13) = (     0          0          1      )
                  (     0          1          0      )
                  (     1          0          0      )

 cart.    s(13) = (  0.0000000 -1.0000000  0.0000000 )
                  ( -1.0000000  0.0000000  0.0000000 )
                  (  0.0000000  0.0000000  1.0000000 )


      isym = 14     inv. 180 deg rotation - cart. axis [1,-1,0]  

 Time Reversal            1
 cryst.   s(14) = (     1          0          0      )
                  (     1         -1          1      )
                  (     0          0          1      )

 cart.    s(14) = (  0.0000000  1.0000000  0.0000000 )
                  (  1.0000000  0.0000000  0.0000000 )
                  (  0.0000000  0.0000000  1.0000000 )


      isym = 15     inv.  90 deg rotation - cart. axis [0,0,-1]  

 Time Reversal            0
 cryst.   s(15) = (    -1          1         -1      )
                  (    -1          0          0      )
                  (     0         -1          0      )

 cart.    s(15) = (  0.0000000 -1.0000000  0.0000000 )
                  (  1.0000000  0.0000000  0.0000000 )
                  (  0.0000000  0.0000000 -1.0000000 )


      isym = 16     inv.  90 deg rotation - cart. axis [0,0,1]   

 Time Reversal            0
 cryst.   s(16) = (     0         -1          0      )
                  (     0          0         -1      )
                  (    -1          1         -1      )

 cart.    s(16) = (  0.0000000  1.0000000  0.0000000 )
                  ( -1.0000000  0.0000000  0.0000000 )
                  (  0.0000000  0.0000000 -1.0000000 )


     the magnetic double point group is D_4h(4/mmm) [C_4h (4/m) ]
     using the double point group C_4h (4/m) 
     there are 16 classes and  8 irreducible representations
     the character table:

       E     -E    C4    -C4   C4^2  -C4^2 C4^3  -C4^3 i     -i    S4^3  -S4^3
                                                                              
G_5+   1.00 -1.00  0.71 -0.71  0.00  0.00  0.71 -0.71  1.00 -1.00  0.71 -0.71
G_6+   1.00 -1.00  0.71 -0.71  0.00  0.00  0.71 -0.71  1.00 -1.00  0.71 -0.71
G_7+   1.00 -1.00 -0.71  0.71  0.00  0.00 -0.71  0.71  1.00 -1.00 -0.71  0.71
G_8+   1.00 -1.00 -0.71  0.71  0.00  0.00 -0.71  0.71  1.00 -1.00 -0.71  0.71
G_5-   1.00 -1.00  0.71 -0.71  0.00  0.00  0.71 -0.71 -1.00  1.00 -0.71  0.71
G_6-   1.00 -1.00  0.71 -0.71  0.00  0.00  0.71 -0.71 -1.00  1.00 -0.71  0.71
G_7-   1.00 -1.00 -0.71  0.71  0.00  0.00 -0.71  0.71 -1.00  1.00  0.71 -0.71
G_8-   1.00 -1.00 -0.71  0.71  0.00  0.00 -0.71  0.71 -1.00  1.00  0.71 -0.71

       s_h   -s_h  S4    -S4  
                              
G_5+   0.00  0.00  0.71 -0.71
G_6+   0.00  0.00  0.71 -0.71
G_7+   0.00  0.00 -0.71  0.71
G_8+   0.00  0.00 -0.71  0.71
G_5-   0.00  0.00 -0.71  0.71
G_6-   0.00  0.00 -0.71  0.71
G_7-   0.00  0.00  0.71 -0.71
G_8-   0.00  0.00  0.71 -0.71

     imaginary part

       E     -E    C4    -C4   C4^2  -C4^2 C4^3  -C4^3 i     -i    S4^3  -S4^3
                                                                              
G_5+   0.00  0.00  0.71 -0.71  1.00 -1.00 -0.71  0.71  0.00  0.00  0.71 -0.71
G_6+   0.00  0.00 -0.71  0.71 -1.00  1.00  0.71 -0.71  0.00  0.00 -0.71  0.71
G_7+   0.00  0.00 -0.71  0.71  1.00 -1.00  0.71 -0.71  0.00  0.00 -0.71  0.71
G_8+   0.00  0.00  0.71 -0.71 -1.00  1.00 -0.71  0.71  0.00  0.00  0.71 -0.71
G_5-   0.00  0.00  0.71 -0.71  1.00 -1.00 -0.71  0.71  0.00  0.00 -0.71  0.71
G_6-   0.00  0.00 -0.71  0.71 -1.00  1.00  0.71 -0.71  0.00  0.00  0.71 -0.71
G_7-   0.00  0.00 -0.71  0.71  1.00 -1.00  0.71 -0.71  0.00  0.00  0.71 -0.71
G_8-   0.00  0.00  0.71 -0.71 -1.00  1.00 -0.71  0.71  0.00  0.00 -0.71  0.71

       s_h   -s_h  S4    -S4  
                              
G_5+   1.00 -1.00 -0.71  0.71
G_6+  -1.00  1.00  0.71 -0.71
G_7+   1.00 -1.00  0.71 -0.71
G_8+  -1.00  1.00 -0.71  0.71
G_5-  -1.00  1.00  0.71 -0.71
G_6-   1.00 -1.00 -0.71  0.71
G_7-  -1.00  1.00 -0.71  0.71
G_8-   1.00 -1.00  0.71 -0.71

     the symmetry operations in each class:
     E             1
     C4^2          2
     C4^3          3
     C4            4
     i             5
     s_h           6
     S4            7
     S4^3          8
     -E           -1
     -C4^2        -2
     -C4^3        -3
     -C4          -4
     -i           -5
     -s_h         -6
     -S4          -7
     -S4^3        -8

   Cartesian axes

     site n.     atom                  positions (alat units)
         1           Fe  tau(   1) = (   0.0000000   0.0000000   0.0000000  )

   Crystallographic axes

     site n.     atom                  positions (cryst. coord.)
         1           Fe  tau(   1) = (  0.0000000  0.0000000  0.0000000  )

     number of k points=   344  gaussian smearing, width (Ry)=  0.0250
                       cart. coord. in units 2pi/alat
        k(    1) = (   0.0000000   0.0000000   0.0625000), wk =   0.0004883
        k(    2) = (   0.0000000  -0.0625000   0.1250000), wk =   0.0019531
        k(    3) = (   0.0000000  -0.1250000   0.1875000), wk =   0.0019531
        k(    4) = (   0.0000000  -0.1875000   0.2500000), wk =   0.0019531
        k(    5) = (   0.0000000  -0.2500000   0.3125000), wk =   0.0019531
        k(    6) = (   0.0000000  -0.3125000   0.3750000), wk =   0.0019531
        k(    7) = (   0.0000000  -0.3750000   0.4375000), wk =   0.0019531
        k(    8) = (   0.0000000  -0.4375000   0.5000000), wk =   0.0019531
        k(    9) = (  -0.0625000   0.0625000   0.0625000), wk =   0.0019531
        k(   10) = (  -0.0625000  -0.0625000   0.1875000), wk =   0.0019531
        k(   11) = (  -0.0625000  -0.1250000   0.2500000), wk =   0.0039062
        k(   12) = (  -0.0625000  -0.1875000   0.3125000), wk =   0.0039062
        k(   13) = (  -0.0625000  -0.2500000   0.3750000), wk =   0.0039062
        k(   14) = (  -0.0625000  -0.3125000   0.4375000), wk =   0.0039062
        k(   15) = (  -0.0625000  -0.3750000   0.5000000), wk =   0.0039062
        k(   16) = (  -0.0625000   0.5625000  -0.4375000), wk =   0.0039062
        k(   17) = (  -0.1250000   0.1250000   0.0625000), wk =   0.0019531
        k(   18) = (  -0.1250000  -0.1250000   0.3125000), wk =   0.0019531
        k(   19) = (  -0.1250000  -0.1875000   0.3750000), wk =   0.0039062
        k(   20) = (  -0.1250000  -0.2500000   0.4375000), wk =   0.0039062
        k(   21) = (  -0.1250000  -0.3125000   0.5000000), wk =   0.0039062
        k(   22) = (  -0.1250000   0.6250000  -0.4375000), wk =   0.0039062
        k(   23) = (  -0.1875000   0.1875000   0.0625000), wk =   0.0019531
        k(   24) = (  -0.1875000   0.1250000   0.1250000), wk =   0.0039062
        k(   25) = (  -0.1875000  -0.1875000   0.4375000), wk =   0.0019531
        k(   26) = (  -0.1875000  -0.2500000   0.5000000), wk =   0.0039062
        k(   27) = (  -0.1875000   0.6875000  -0.4375000), wk =   0.0039062
        k(   28) = (  -0.1875000   0.6250000  -0.3750000), wk =   0.0039062
        k(   29) = (  -0.2500000   0.2500000   0.0625000), wk =   0.0019531
        k(   30) = (  -0.2500000   0.1875000   0.1250000), wk =   0.0039062
        k(   31) = (  -0.2500000   0.7500000  -0.4375000), wk =   0.0019531
        k(   32) = (  -0.2500000   0.6875000  -0.3750000), wk =   0.0039062
        k(   33) = (  -0.3125000   0.3125000   0.0625000), wk =   0.0019531
        k(   34) = (  -0.3125000   0.2500000   0.1250000), wk =   0.0039062
        k(   35) = (  -0.3125000   0.1875000   0.1875000), wk =   0.0039062
        k(   36) = (  -0.3125000   0.6875000  -0.3125000), wk =   0.0019531
        k(   37) = (  -0.3750000   0.3750000   0.0625000), wk =   0.0019531
        k(   38) = (  -0.3750000   0.3125000   0.1250000), wk =   0.0039062
        k(   39) = (  -0.3750000   0.2500000   0.1875000), wk =   0.0039062
        k(   40) = (  -0.4375000   0.4375000   0.0625000), wk =   0.0019531
        k(   41) = (  -0.4375000   0.3750000   0.1250000), wk =   0.0039062
        k(   42) = (  -0.4375000   0.3125000   0.1875000), wk =   0.0039062
        k(   43) = (  -0.4375000   0.2500000   0.2500000), wk =   0.0039062
        k(   44) = (   0.5000000  -0.5000000   0.0625000), wk =   0.0009766
        k(   45) = (   0.5000000  -0.5625000   0.1250000), wk =   0.0039062
        k(   46) = (   0.5000000  -0.6250000   0.1875000), wk =   0.0039062
        k(   47) = (   0.5000000  -0.6875000   0.2500000), wk =   0.0039062
        k(   48) = (   0.4375000  -0.5625000   0.1875000), wk =   0.0019531
        k(   49) = (   0.4375000  -0.6250000   0.2500000), wk =   0.0039062
        k(   50) = (   0.4375000  -0.6875000   0.3125000), wk =   0.0039062
        k(   51) = (   0.3750000  -0.6250000   0.3125000), wk =   0.0019531
        k(   52) = (   0.0000000   0.0000000   0.1875000), wk =   0.0004883
        k(   53) = (   0.0000000  -0.0625000   0.2500000), wk =   0.0019531
        k(   54) = (   0.0000000  -0.1250000   0.3125000), wk =   0.0019531
        k(   55) = (   0.0000000  -0.1875000   0.3750000), wk =   0.0019531
        k(   56) = (   0.0000000  -0.2500000   0.4375000), wk =   0.0019531
        k(   57) = (   0.0000000  -0.3125000   0.5000000), wk =   0.0019531
        k(   58) = (   0.0000000  -0.3750000   0.5625000), wk =   0.0019531
        k(   59) = (  -0.0625000  -0.0625000   0.3125000), wk =   0.0019531
        k(   60) = (  -0.0625000  -0.1250000   0.3750000), wk =   0.0039062
        k(   61) = (  -0.0625000  -0.1875000   0.4375000), wk =   0.0039062
        k(   62) = (  -0.0625000  -0.2500000   0.5000000), wk =   0.0039062
        k(   63) = (  -0.0625000  -0.3125000   0.5625000), wk =   0.0039062
        k(   64) = (  -0.0625000   0.6250000  -0.3750000), wk =   0.0039062
        k(   65) = (  -0.1250000  -0.1250000   0.4375000), wk =   0.0019531
        k(   66) = (  -0.1250000  -0.1875000   0.5000000), wk =   0.0039062
        k(   67) = (  -0.1250000  -0.2500000   0.5625000), wk =   0.0039062
        k(   68) = (  -0.1250000   0.6875000  -0.3750000), wk =   0.0039062
        k(   69) = (  -0.1875000   0.1875000   0.1875000), wk =   0.0019531
        k(   70) = (  -0.1875000  -0.1875000   0.5625000), wk =   0.0019531
        k(   71) = (  -0.1875000   0.7500000  -0.3750000), wk =   0.0039062
        k(   72) = (  -0.1875000   0.6875000  -0.3125000), wk =   0.0039062
        k(   73) = (  -0.2500000   0.2500000   0.1875000), wk =   0.0019531
        k(   74) = (  -0.2500000   0.7500000  -0.3125000), wk =   0.0019531
        k(   75) = (  -0.3125000   0.3125000   0.1875000), wk =   0.0019531
        k(   76) = (  -0.3125000   0.2500000   0.2500000), wk =   0.0039062
        k(   77) = (  -0.3750000   0.3750000   0.1875000), wk =   0.0019531
        k(   78) = (  -0.3750000   0.3125000   0.2500000), wk =   0.0039062
        k(   79) = (   0.5625000  -0.5625000   0.1875000), wk =   0.0019531
        k(   80) = (   0.5625000  -0.6250000   0.2500000), wk =   0.0039062
        k(   81) = (   0.5625000  -0.6875000   0.3125000), wk =   0.0039062
        k(   82) = (   0.5000000  -0.5000000   0.1875000), wk =   0.0009766
        k(   83) = (   0.5000000  -0.5625000   0.2500000), wk =   0.0039062
        k(   84) = (   0.5000000  -0.6250000   0.3125000), wk =   0.0039062
        k(   85) = (   0.4375000  -0.5625000   0.3125000), wk =   0.0019531
        k(   86) = (   0.4375000  -0.6250000   0.3750000), wk =   0.0039062
        k(   87) = (   0.0000000   0.0000000   0.3125000), wk =   0.0004883
        k(   88) = (   0.0000000  -0.0625000   0.3750000), wk =   0.0019531
        k(   89) = (   0.0000000  -0.1250000   0.4375000), wk =   0.0019531
        k(   90) = (   0.0000000  -0.1875000   0.5000000), wk =   0.0019531
        k(   91) = (   0.0000000  -0.2500000   0.5625000), wk =   0.0019531
        k(   92) = (   0.0000000  -0.3125000   0.6250000), wk =   0.0019531
        k(   93) = (  -0.0625000  -0.0625000   0.4375000), wk =   0.0019531
        k(   94) = (  -0.0625000  -0.1250000   0.5000000), wk =   0.0039062
        k(   95) = (  -0.0625000  -0.1875000   0.5625000), wk =   0.0039062
        k(   96) = (  -0.0625000  -0.2500000   0.6250000), wk =   0.0039062
        k(   97) = (  -0.0625000   0.6875000  -0.3125000), wk =   0.0039062
        k(   98) = (  -0.1250000  -0.1250000   0.5625000), wk =   0.0019531
        k(   99) = (  -0.1250000  -0.1875000   0.6250000), wk =   0.0039062
        k(  100) = (  -0.1250000   0.7500000  -0.3125000), wk =   0.0039062
        k(  101) = (  -0.1875000   0.8125000  -0.3125000), wk =   0.0019531
        k(  102) = (  -0.1875000   0.7500000  -0.2500000), wk =   0.0039062
        k(  103) = (  -0.3125000   0.3125000   0.3125000), wk =   0.0019531
        k(  104) = (   0.6250000  -0.6250000   0.3125000), wk =   0.0019531
        k(  105) = (   0.5625000  -0.5625000   0.3125000), wk =   0.0019531
        k(  106) = (   0.5625000  -0.6250000   0.3750000), wk =   0.0039062
        k(  107) = (   0.5000000  -0.5000000   0.3125000), wk =   0.0009766
        k(  108) = (   0.5000000  -0.5625000   0.3750000), wk =   0.0039062
        k(  109) = (   0.4375000  -0.5625000   0.4375000), wk =   0.0019531
        k(  110) = (   0.0000000   0.0000000   0.4375000), wk =   0.0004883
        k(  111) = (   0.0000000  -0.0625000   0.5000000), wk =   0.0019531
        k(  112) = (   0.0000000  -0.1250000   0.5625000), wk =   0.0019531
        k(  113) = (   0.0000000  -0.1875000   0.6250000), wk =   0.0019531
        k(  114) = (   0.0000000  -0.2500000   0.6875000), wk =   0.0019531
        k(  115) = (  -0.0625000  -0.0625000   0.5625000), wk =   0.0019531
        k(  116) = (  -0.0625000  -0.1250000   0.6250000), wk =   0.0039062
        k(  117) = (  -0.0625000  -0.1875000   0.6875000), wk =   0.0039062
        k(  118) = (  -0.0625000   0.7500000  -0.2500000), wk =   0.0039062
        k(  119) = (  -0.1250000  -0.1250000   0.6875000), wk =   0.0019531
        k(  120) = (  -0.1250000   0.8125000  -0.2500000), wk =   0.0039062
        k(  121) = (  -0.1875000   0.8125000  -0.1875000), wk =   0.0019531
        k(  122) = (   0.5625000  -0.5625000   0.4375000), wk =   0.0019531
        k(  123) = (   0.5000000  -0.5000000   0.4375000), wk =   0.0009766
        k(  124) = (   0.0000000   0.0000000   0.5625000), wk =   0.0004883
        k(  125) = (   0.0000000  -0.0625000   0.6250000), wk =   0.0019531
        k(  126) = (   0.0000000  -0.1250000   0.6875000), wk =   0.0019531
        k(  127) = (   0.0000000  -0.1875000   0.7500000), wk =   0.0019531
        k(  128) = (  -0.0625000  -0.0625000   0.6875000), wk =   0.0019531
        k(  129) = (  -0.0625000  -0.1250000   0.7500000), wk =   0.0039062
        k(  130) = (  -0.0625000   0.8125000  -0.1875000), wk =   0.0039062
        k(  131) = (  -0.1250000   0.8750000  -0.1875000), wk =   0.0019531
        k(  132) = (   0.0000000   0.0000000   0.6875000), wk =   0.0004883
        k(  133) = (   0.0000000  -0.0625000   0.7500000), wk =   0.0019531
        k(  134) = (   0.0000000  -0.1250000   0.8125000), wk =   0.0019531
        k(  135) = (  -0.0625000  -0.0625000   0.8125000), wk =   0.0019531
        k(  136) = (  -0.0625000   0.8750000  -0.1250000), wk =   0.0039062
        k(  137) = (   0.0000000   0.0000000   0.8125000), wk =   0.0004883
        k(  138) = (   0.0000000  -0.0625000   0.8750000), wk =   0.0019531
        k(  139) = (  -0.0625000   0.9375000  -0.0625000), wk =   0.0019531
        k(  140) = (   0.0000000   0.0000000   0.9375000), wk =   0.0004883
        k(  141) = (   0.0000000   0.0625000   0.0000000), wk =   0.0009766
        k(  142) = (  -0.0625000   0.1250000   0.0000000), wk =   0.0019531
        k(  143) = (   0.1250000   0.0000000  -0.0625000), wk =   0.0019531
        k(  144) = (  -0.1250000   0.1875000   0.0000000), wk =   0.0019531
        k(  145) = (   0.1875000   0.0000000  -0.1250000), wk =   0.0019531
        k(  146) = (  -0.1875000   0.2500000   0.0000000), wk =   0.0019531
        k(  147) = (   0.2500000   0.0000000  -0.1875000), wk =   0.0019531
        k(  148) = (  -0.2500000   0.3125000   0.0000000), wk =   0.0019531
        k(  149) = (   0.3125000   0.0000000  -0.2500000), wk =   0.0019531
        k(  150) = (  -0.3125000   0.3750000   0.0000000), wk =   0.0019531
        k(  151) = (   0.3750000   0.0000000  -0.3125000), wk =   0.0019531
        k(  152) = (  -0.3750000   0.4375000   0.0000000), wk =   0.0019531
        k(  153) = (   0.4375000   0.0000000  -0.3750000), wk =   0.0019531
        k(  154) = (  -0.4375000   0.5000000   0.0000000), wk =   0.0019531
        k(  155) = (   0.5000000   0.0000000  -0.4375000), wk =   0.0019531
        k(  156) = (  -0.0625000   0.1875000  -0.0625000), wk =   0.0039062
        k(  157) = (  -0.1250000   0.2500000  -0.0625000), wk =   0.0039062
        k(  158) = (   0.2500000  -0.0625000  -0.1250000), wk =   0.0039062
        k(  159) = (  -0.1875000   0.3125000  -0.0625000), wk =   0.0039062
        k(  160) = (   0.3125000  -0.0625000  -0.1875000), wk =   0.0039062
        k(  161) = (  -0.2500000   0.3750000  -0.0625000), wk =   0.0039062
        k(  162) = (   0.3750000  -0.0625000  -0.2500000), wk =   0.0039062
        k(  163) = (  -0.3125000   0.4375000  -0.0625000), wk =   0.0039062
        k(  164) = (   0.4375000  -0.0625000  -0.3125000), wk =   0.0039062
        k(  165) = (  -0.3750000   0.5000000  -0.0625000), wk =   0.0039062
        k(  166) = (   0.5000000  -0.0625000  -0.3750000), wk =   0.0039062
        k(  167) = (   0.5625000  -0.4375000  -0.0625000), wk =   0.0019531
        k(  168) = (   0.1250000   0.0625000  -0.1250000), wk =   0.0039062
        k(  169) = (  -0.1250000   0.3125000  -0.1250000), wk =   0.0039062
        k(  170) = (  -0.1875000   0.3750000  -0.1250000), wk =   0.0039062
        k(  171) = (   0.3750000  -0.1250000  -0.1875000), wk =   0.0039062
        k(  172) = (  -0.2500000   0.4375000  -0.1250000), wk =   0.0039062
        k(  173) = (   0.4375000  -0.1250000  -0.2500000), wk =   0.0039062
        k(  174) = (  -0.3125000   0.5000000  -0.1250000), wk =   0.0039062
        k(  175) = (   0.5000000  -0.1250000  -0.3125000), wk =   0.0039062
        k(  176) = (   0.6250000  -0.4375000  -0.1250000), wk =   0.0039062
        k(  177) = (  -0.4375000  -0.1250000   0.6250000), wk =   0.0039062
        k(  178) = (   0.1875000   0.0625000  -0.1875000), wk =   0.0039062
        k(  179) = (   0.1250000   0.1250000  -0.1875000), wk =   0.0019531
        k(  180) = (  -0.1875000   0.4375000  -0.1875000), wk =   0.0039062
        k(  181) = (  -0.2500000   0.5000000  -0.1875000), wk =   0.0039062
        k(  182) = (   0.5000000  -0.1875000  -0.2500000), wk =   0.0039062
        k(  183) = (   0.6875000  -0.4375000  -0.1875000), wk =   0.0039062
        k(  184) = (  -0.4375000  -0.1875000   0.6875000), wk =   0.0039062
        k(  185) = (   0.6250000  -0.3750000  -0.1875000), wk =   0.0019531
        k(  186) = (   0.2500000   0.0625000  -0.2500000), wk =   0.0039062
        k(  187) = (   0.1875000   0.1250000  -0.2500000), wk =   0.0039062
        k(  188) = (   0.1250000  -0.2500000   0.1875000), wk =   0.0039062
        k(  189) = (   0.7500000  -0.4375000  -0.2500000), wk =   0.0039062
        k(  190) = (   0.6875000  -0.3750000  -0.2500000), wk =   0.0039062
        k(  191) = (  -0.3750000  -0.2500000   0.6875000), wk =   0.0039062
        k(  192) = (   0.3125000   0.0625000  -0.3125000), wk =   0.0039062
        k(  193) = (   0.2500000   0.1250000  -0.3125000), wk =   0.0039062
        k(  194) = (   0.1250000  -0.3125000   0.2500000), wk =   0.0039062
        k(  195) = (   0.1875000   0.1875000  -0.3125000), wk =   0.0019531
        k(  196) = (   0.3750000   0.0625000  -0.3750000), wk =   0.0039062
        k(  197) = (   0.3125000   0.1250000  -0.3750000), wk =   0.0039062
        k(  198) = (   0.1250000  -0.3750000   0.3125000), wk =   0.0039062
        k(  199) = (   0.2500000   0.1875000  -0.3750000), wk =   0.0039062
        k(  200) = (   0.1875000  -0.3750000   0.2500000), wk =   0.0039062
        k(  201) = (   0.4375000   0.0625000  -0.4375000), wk =   0.0039062
        k(  202) = (   0.3750000   0.1250000  -0.4375000), wk =   0.0039062
        k(  203) = (   0.1250000  -0.4375000   0.3750000), wk =   0.0039062
        k(  204) = (   0.3125000   0.1875000  -0.4375000), wk =   0.0039062
        k(  205) = (   0.1875000  -0.4375000   0.3125000), wk =   0.0039062
        k(  206) = (   0.2500000   0.2500000  -0.4375000), wk =   0.0019531
        k(  207) = (  -0.5000000   0.0625000   0.5000000), wk =   0.0019531
        k(  208) = (  -0.5625000   0.1250000   0.5000000), wk =   0.0039062
        k(  209) = (   0.1250000   0.5000000  -0.5625000), wk =   0.0039062
        k(  210) = (  -0.6250000   0.1875000   0.5000000), wk =   0.0039062
        k(  211) = (   0.1875000   0.5000000  -0.6250000), wk =   0.0039062
        k(  212) = (  -0.6875000   0.2500000   0.5000000), wk =   0.0039062
        k(  213) = (   0.2500000   0.5000000  -0.6875000), wk =   0.0039062
        k(  214) = (  -0.5625000   0.1875000   0.4375000), wk =   0.0039062
        k(  215) = (  -0.6250000   0.2500000   0.4375000), wk =   0.0039062
        k(  216) = (   0.2500000   0.4375000  -0.6250000), wk =   0.0039062
        k(  217) = (  -0.6875000   0.3125000   0.4375000), wk =   0.0019531
        k(  218) = (  -0.6250000   0.3125000   0.3750000), wk =   0.0039062
        k(  219) = (   0.0000000   0.1875000   0.0000000), wk =   0.0009766
        k(  220) = (  -0.0625000   0.2500000   0.0000000), wk =   0.0019531
        k(  221) = (   0.2500000   0.0000000  -0.0625000), wk =   0.0019531
        k(  222) = (  -0.1250000   0.3125000   0.0000000), wk =   0.0019531
        k(  223) = (   0.3125000   0.0000000  -0.1250000), wk =   0.0019531
        k(  224) = (  -0.1875000   0.3750000   0.0000000), wk =   0.0019531
        k(  225) = (   0.3750000   0.0000000  -0.1875000), wk =   0.0019531
        k(  226) = (  -0.2500000   0.4375000   0.0000000), wk =   0.0019531
        k(  227) = (   0.4375000   0.0000000  -0.2500000), wk =   0.0019531
        k(  228) = (  -0.3125000   0.5000000   0.0000000), wk =   0.0019531
        k(  229) = (   0.5000000   0.0000000  -0.3125000), wk =   0.0019531
        k(  230) = (  -0.3750000   0.5625000   0.0000000), wk =   0.0019531
        k(  231) = (   0.5625000   0.0000000  -0.3750000), wk =   0.0019531
        k(  232) = (  -0.0625000   0.3125000  -0.0625000), wk =   0.0039062
        k(  233) = (  -0.1250000   0.3750000  -0.0625000), wk =   0.0039062
        k(  234) = (   0.3750000  -0.0625000  -0.1250000), wk =   0.0039062
        k(  235) = (  -0.1875000   0.4375000  -0.0625000), wk =   0.0039062
        k(  236) = (   0.4375000  -0.0625000  -0.1875000), wk =   0.0039062
        k(  237) = (  -0.2500000   0.5000000  -0.0625000), wk =   0.0039062
        k(  238) = (   0.5000000  -0.0625000  -0.2500000), wk =   0.0039062
        k(  239) = (  -0.3125000   0.5625000  -0.0625000), wk =   0.0039062
        k(  240) = (   0.5625000  -0.0625000  -0.3125000), wk =   0.0039062
        k(  241) = (   0.6250000  -0.3750000  -0.0625000), wk =   0.0019531
        k(  242) = (  -0.1250000   0.4375000  -0.1250000), wk =   0.0039062
        k(  243) = (  -0.1875000   0.5000000  -0.1250000), wk =   0.0039062
        k(  244) = (   0.5000000  -0.1250000  -0.1875000), wk =   0.0039062
        k(  245) = (  -0.2500000   0.5625000  -0.1250000), wk =   0.0039062
        k(  246) = (   0.5625000  -0.1250000  -0.2500000), wk =   0.0039062
        k(  247) = (   0.6875000  -0.3750000  -0.1250000), wk =   0.0039062
        k(  248) = (  -0.3750000  -0.1250000   0.6875000), wk =   0.0039062
        k(  249) = (  -0.1875000   0.5625000  -0.1875000), wk =   0.0039062
        k(  250) = (   0.7500000  -0.3750000  -0.1875000), wk =   0.0039062
        k(  251) = (  -0.3750000  -0.1875000   0.7500000), wk =   0.0039062
        k(  252) = (   0.6875000  -0.3125000  -0.1875000), wk =   0.0019531
        k(  253) = (   0.2500000   0.1875000  -0.2500000), wk =   0.0039062
        k(  254) = (   0.7500000  -0.3125000  -0.2500000), wk =   0.0039062
        k(  255) = (   0.3125000   0.1875000  -0.3125000), wk =   0.0039062
        k(  256) = (   0.2500000   0.2500000  -0.3125000), wk =   0.0019531
        k(  257) = (   0.3750000   0.1875000  -0.3750000), wk =   0.0039062
        k(  258) = (   0.3125000   0.2500000  -0.3750000), wk =   0.0039062
        k(  259) = (   0.2500000  -0.3750000   0.3125000), wk =   0.0039062
        k(  260) = (  -0.5625000   0.1875000   0.5625000), wk =   0.0039062
        k(  261) = (  -0.6250000   0.2500000   0.5625000), wk =   0.0039062
        k(  262) = (   0.2500000   0.5625000  -0.6250000), wk =   0.0039062
        k(  263) = (  -0.6875000   0.3125000   0.5625000), wk =   0.0019531
        k(  264) = (  -0.5000000   0.1875000   0.5000000), wk =   0.0019531
        k(  265) = (  -0.5625000   0.2500000   0.5000000), wk =   0.0039062
        k(  266) = (   0.2500000   0.5000000  -0.5625000), wk =   0.0039062
        k(  267) = (  -0.6250000   0.3125000   0.5000000), wk =   0.0039062
        k(  268) = (   0.3125000   0.5000000  -0.6250000), wk =   0.0039062
        k(  269) = (  -0.5625000   0.3125000   0.4375000), wk =   0.0039062
        k(  270) = (  -0.6250000   0.3750000   0.4375000), wk =   0.0019531
        k(  271) = (   0.0000000   0.3125000   0.0000000), wk =   0.0009766
        k(  272) = (  -0.0625000   0.3750000   0.0000000), wk =   0.0019531
        k(  273) = (   0.3750000   0.0000000  -0.0625000), wk =   0.0019531
        k(  274) = (  -0.1250000   0.4375000   0.0000000), wk =   0.0019531
        k(  275) = (   0.4375000   0.0000000  -0.1250000), wk =   0.0019531
        k(  276) = (  -0.1875000   0.5000000   0.0000000), wk =   0.0019531
        k(  277) = (   0.5000000   0.0000000  -0.1875000), wk =   0.0019531
        k(  278) = (  -0.2500000   0.5625000   0.0000000), wk =   0.0019531
        k(  279) = (   0.5625000   0.0000000  -0.2500000), wk =   0.0019531
        k(  280) = (  -0.3125000   0.6250000   0.0000000), wk =   0.0019531
        k(  281) = (   0.6250000   0.0000000  -0.3125000), wk =   0.0019531
        k(  282) = (  -0.0625000   0.4375000  -0.0625000), wk =   0.0039062
        k(  283) = (  -0.1250000   0.5000000  -0.0625000), wk =   0.0039062
        k(  284) = (   0.5000000  -0.0625000  -0.1250000), wk =   0.0039062
        k(  285) = (  -0.1875000   0.5625000  -0.0625000), wk =   0.0039062
        k(  286) = (   0.5625000  -0.0625000  -0.1875000), wk =   0.0039062
        k(  287) = (  -0.2500000   0.6250000  -0.0625000), wk =   0.0039062
        k(  288) = (   0.6250000  -0.0625000  -0.2500000), wk =   0.0039062
        k(  289) = (   0.6875000  -0.3125000  -0.0625000), wk =   0.0019531
        k(  290) = (  -0.1250000   0.5625000  -0.1250000), wk =   0.0039062
        k(  291) = (  -0.1875000   0.6250000  -0.1250000), wk =   0.0039062
        k(  292) = (   0.6250000  -0.1250000  -0.1875000), wk =   0.0039062
        k(  293) = (   0.7500000  -0.3125000  -0.1250000), wk =   0.0039062
        k(  294) = (  -0.3125000  -0.1250000   0.7500000), wk =   0.0039062
        k(  295) = (   0.8125000  -0.3125000  -0.1875000), wk =   0.0039062
        k(  296) = (   0.7500000  -0.2500000  -0.1875000), wk =   0.0019531
        k(  297) = (  -0.6250000   0.3125000   0.6250000), wk =   0.0039062
        k(  298) = (  -0.5625000   0.3125000   0.5625000), wk =   0.0039062
        k(  299) = (  -0.6250000   0.3750000   0.5625000), wk =   0.0019531
        k(  300) = (  -0.5000000   0.3125000   0.5000000), wk =   0.0019531
        k(  301) = (  -0.5625000   0.3750000   0.5000000), wk =   0.0039062
        k(  302) = (   0.3750000   0.5000000  -0.5625000), wk =   0.0039062
        k(  303) = (   0.0000000   0.4375000   0.0000000), wk =   0.0009766
        k(  304) = (  -0.0625000   0.5000000   0.0000000), wk =   0.0019531
        k(  305) = (   0.5000000   0.0000000  -0.0625000), wk =   0.0019531
        k(  306) = (  -0.1250000   0.5625000   0.0000000), wk =   0.0019531
        k(  307) = (   0.5625000   0.0000000  -0.1250000), wk =   0.0019531
        k(  308) = (  -0.1875000   0.6250000   0.0000000), wk =   0.0019531
        k(  309) = (   0.6250000   0.0000000  -0.1875000), wk =   0.0019531
        k(  310) = (  -0.2500000   0.6875000   0.0000000), wk =   0.0019531
        k(  311) = (   0.6875000   0.0000000  -0.2500000), wk =   0.0019531
        k(  312) = (  -0.0625000   0.5625000  -0.0625000), wk =   0.0039062
        k(  313) = (  -0.1250000   0.6250000  -0.0625000), wk =   0.0039062
        k(  314) = (   0.6250000  -0.0625000  -0.1250000), wk =   0.0039062
        k(  315) = (  -0.1875000   0.6875000  -0.0625000), wk =   0.0039062
        k(  316) = (   0.6875000  -0.0625000  -0.1875000), wk =   0.0039062
        k(  317) = (   0.7500000  -0.2500000  -0.0625000), wk =   0.0019531
        k(  318) = (  -0.1250000   0.6875000  -0.1250000), wk =   0.0039062
        k(  319) = (   0.8125000  -0.2500000  -0.1250000), wk =   0.0039062
        k(  320) = (  -0.2500000  -0.1250000   0.8125000), wk =   0.0039062
        k(  321) = (  -0.5000000   0.4375000   0.5000000), wk =   0.0019531
        k(  322) = (   0.0000000   0.5625000   0.0000000), wk =   0.0009766
        k(  323) = (  -0.0625000   0.6250000   0.0000000), wk =   0.0019531
        k(  324) = (   0.6250000   0.0000000  -0.0625000), wk =   0.0019531
        k(  325) = (  -0.1250000   0.6875000   0.0000000), wk =   0.0019531
        k(  326) = (   0.6875000   0.0000000  -0.1250000), wk =   0.0019531
        k(  327) = (  -0.1875000   0.7500000   0.0000000), wk =   0.0019531
        k(  328) = (   0.7500000   0.0000000  -0.1875000), wk =   0.0019531
        k(  329) = (  -0.0625000   0.6875000  -0.0625000), wk =   0.0039062
        k(  330) = (  -0.1250000   0.7500000  -0.0625000), wk =   0.0039062
        k(  331) = (   0.7500000  -0.0625000  -0.1250000), wk =   0.0039062
        k(  332) = (   0.8125000  -0.1875000  -0.0625000), wk =   0.0019531
        k(  333) = (   0.8750000  -0.1875000  -0.1250000), wk =   0.0039062
        k(  334) = (   0.0000000   0.6875000   0.0000000), wk =   0.0009766
        k(  335) = (  -0.0625000   0.7500000   0.0000000), wk =   0.0019531
        k(  336) = (   0.7500000   0.0000000  -0.0625000), wk =   0.0019531
        k(  337) = (  -0.1250000   0.8125000   0.0000000), wk =   0.0019531
        k(  338) = (   0.8125000   0.0000000  -0.1250000), wk =   0.0019531
        k(  339) = (  -0.0625000   0.8125000  -0.0625000), wk =   0.0039062
        k(  340) = (   0.8750000  -0.1250000  -0.0625000), wk =   0.0019531
        k(  341) = (   0.0000000   0.8125000   0.0000000), wk =   0.0009766
        k(  342) = (  -0.0625000   0.8750000   0.0000000), wk =   0.0019531
        k(  343) = (   0.8750000   0.0000000  -0.0625000), wk =   0.0019531
        k(  344) = (   0.0000000   0.9375000   0.0000000), wk =   0.0009766

                       cryst. coord.
        k(    1) = (   0.0312500   0.0312500   0.0312500), wk =   0.0004883
        k(    2) = (   0.0312500   0.0312500   0.0937500), wk =   0.0019531
        k(    3) = (   0.0312500   0.0312500   0.1562500), wk =   0.0019531
        k(    4) = (   0.0312500   0.0312500   0.2187500), wk =   0.0019531
        k(    5) = (   0.0312500   0.0312500   0.2812500), wk =   0.0019531
        k(    6) = (   0.0312500   0.0312500   0.3437500), wk =   0.0019531
        k(    7) = (   0.0312500   0.0312500   0.4062500), wk =   0.0019531
        k(    8) = (   0.0312500   0.0312500   0.4687500), wk =   0.0019531
        k(    9) = (   0.0312500   0.0937500   0.0312500), wk =   0.0019531
        k(   10) = (   0.0312500   0.0937500   0.1562500), wk =   0.0019531
        k(   11) = (   0.0312500   0.0937500   0.2187500), wk =   0.0039062
        k(   12) = (   0.0312500   0.0937500   0.2812500), wk =   0.0039062
        k(   13) = (   0.0312500   0.0937500   0.3437500), wk =   0.0039062
        k(   14) = (   0.0312500   0.0937500   0.4062500), wk =   0.0039062
        k(   15) = (   0.0312500   0.0937500   0.4687500), wk =   0.0039062
        k(   16) = (   0.0312500   0.0937500  -0.4687500), wk =   0.0039062
        k(   17) = (   0.0312500   0.1562500   0.0312500), wk =   0.0019531
        k(   18) = (   0.0312500   0.1562500   0.2812500), wk =   0.0019531
        k(   19) = (   0.0312500   0.1562500   0.3437500), wk =   0.0039062
        k(   20) = (   0.0312500   0.1562500   0.4062500), wk =   0.0039062
        k(   21) = (   0.0312500   0.1562500   0.4687500), wk =   0.0039062
        k(   22) = (   0.0312500   0.1562500  -0.4687500), wk =   0.0039062
        k(   23) = (   0.0312500   0.2187500   0.0312500), wk =   0.0019531
        k(   24) = (   0.0312500   0.2187500   0.0937500), wk =   0.0039062
        k(   25) = (   0.0312500   0.2187500   0.4062500), wk =   0.0019531
        k(   26) = (   0.0312500   0.2187500   0.4687500), wk =   0.0039062
        k(   27) = (   0.0312500   0.2187500  -0.4687500), wk =   0.0039062
        k(   28) = (   0.0312500   0.2187500  -0.4062500), wk =   0.0039062
        k(   29) = (   0.0312500   0.2812500   0.0312500), wk =   0.0019531
        k(   30) = (   0.0312500   0.2812500   0.0937500), wk =   0.0039062
        k(   31) = (   0.0312500   0.2812500  -0.4687500), wk =   0.0019531
        k(   32) = (   0.0312500   0.2812500  -0.4062500), wk =   0.0039062
        k(   33) = (   0.0312500   0.3437500   0.0312500), wk =   0.0019531
        k(   34) = (   0.0312500   0.3437500   0.0937500), wk =   0.0039062
        k(   35) = (   0.0312500   0.3437500   0.1562500), wk =   0.0039062
        k(   36) = (   0.0312500   0.3437500  -0.3437500), wk =   0.0019531
        k(   37) = (   0.0312500   0.4062500   0.0312500), wk =   0.0019531
        k(   38) = (   0.0312500   0.4062500   0.0937500), wk =   0.0039062
        k(   39) = (   0.0312500   0.4062500   0.1562500), wk =   0.0039062
        k(   40) = (   0.0312500   0.4687500   0.0312500), wk =   0.0019531
        k(   41) = (   0.0312500   0.4687500   0.0937500), wk =   0.0039062
        k(   42) = (   0.0312500   0.4687500   0.1562500), wk =   0.0039062
        k(   43) = (   0.0312500   0.4687500   0.2187500), wk =   0.0039062
        k(   44) = (   0.0312500  -0.4687500   0.0312500), wk =   0.0009766
        k(   45) = (   0.0312500  -0.4687500   0.0937500), wk =   0.0039062
        k(   46) = (   0.0312500  -0.4687500   0.1562500), wk =   0.0039062
        k(   47) = (   0.0312500  -0.4687500   0.2187500), wk =   0.0039062
        k(   48) = (   0.0312500  -0.4062500   0.1562500), wk =   0.0019531
        k(   49) = (   0.0312500  -0.4062500   0.2187500), wk =   0.0039062
        k(   50) = (   0.0312500  -0.4062500   0.2812500), wk =   0.0039062
        k(   51) = (   0.0312500  -0.3437500   0.2812500), wk =   0.0019531
        k(   52) = (   0.0937500   0.0937500   0.0937500), wk =   0.0004883
        k(   53) = (   0.0937500   0.0937500   0.1562500), wk =   0.0019531
        k(   54) = (   0.0937500   0.0937500   0.2187500), wk =   0.0019531
        k(   55) = (   0.0937500   0.0937500   0.2812500), wk =   0.0019531
        k(   56) = (   0.0937500   0.0937500   0.3437500), wk =   0.0019531
        k(   57) = (   0.0937500   0.0937500   0.4062500), wk =   0.0019531
        k(   58) = (   0.0937500   0.0937500   0.4687500), wk =   0.0019531
        k(   59) = (   0.0937500   0.1562500   0.2187500), wk =   0.0019531
        k(   60) = (   0.0937500   0.1562500   0.2812500), wk =   0.0039062
        k(   61) = (   0.0937500   0.1562500   0.3437500), wk =   0.0039062
        k(   62) = (   0.0937500   0.1562500   0.4062500), wk =   0.0039062
        k(   63) = (   0.0937500   0.1562500   0.4687500), wk =   0.0039062
        k(   64) = (   0.0937500   0.1562500  -0.4687500), wk =   0.0039062
        k(   65) = (   0.0937500   0.2187500   0.3437500), wk =   0.0019531
        k(   66) = (   0.0937500   0.2187500   0.4062500), wk =   0.0039062
        k(   67) = (   0.0937500   0.2187500   0.4687500), wk =   0.0039062
        k(   68) = (   0.0937500   0.2187500  -0.4687500), wk =   0.0039062
        k(   69) = (   0.0937500   0.2812500   0.0937500), wk =   0.0019531
        k(   70) = (   0.0937500   0.2812500   0.4687500), wk =   0.0019531
        k(   71) = (   0.0937500   0.2812500  -0.4687500), wk =   0.0039062
        k(   72) = (   0.0937500   0.2812500  -0.4062500), wk =   0.0039062
        k(   73) = (   0.0937500   0.3437500   0.0937500), wk =   0.0019531
        k(   74) = (   0.0937500   0.3437500  -0.4062500), wk =   0.0019531
        k(   75) = (   0.0937500   0.4062500   0.0937500), wk =   0.0019531
        k(   76) = (   0.0937500   0.4062500   0.1562500), wk =   0.0039062
        k(   77) = (   0.0937500   0.4687500   0.0937500), wk =   0.0019531
        k(   78) = (   0.0937500   0.4687500   0.1562500), wk =   0.0039062
        k(   79) = (   0.0937500  -0.4687500   0.0937500), wk =   0.0019531
        k(   80) = (   0.0937500  -0.4687500   0.1562500), wk =   0.0039062
        k(   81) = (   0.0937500  -0.4687500   0.2187500), wk =   0.0039062
        k(   82) = (   0.0937500  -0.4062500   0.0937500), wk =   0.0009766
        k(   83) = (   0.0937500  -0.4062500   0.1562500), wk =   0.0039062
        k(   84) = (   0.0937500  -0.4062500   0.2187500), wk =   0.0039062
        k(   85) = (   0.0937500  -0.3437500   0.2187500), wk =   0.0019531
        k(   86) = (   0.0937500  -0.3437500   0.2812500), wk =   0.0039062
        k(   87) = (   0.1562500   0.1562500   0.1562500), wk =   0.0004883
        k(   88) = (   0.1562500   0.1562500   0.2187500), wk =   0.0019531
        k(   89) = (   0.1562500   0.1562500   0.2812500), wk =   0.0019531
        k(   90) = (   0.1562500   0.1562500   0.3437500), wk =   0.0019531
        k(   91) = (   0.1562500   0.1562500   0.4062500), wk =   0.0019531
        k(   92) = (   0.1562500   0.1562500   0.4687500), wk =   0.0019531
        k(   93) = (   0.1562500   0.2187500   0.2812500), wk =   0.0019531
        k(   94) = (   0.1562500   0.2187500   0.3437500), wk =   0.0039062
        k(   95) = (   0.1562500   0.2187500   0.4062500), wk =   0.0039062
        k(   96) = (   0.1562500   0.2187500   0.4687500), wk =   0.0039062
        k(   97) = (   0.1562500   0.2187500  -0.4687500), wk =   0.0039062
        k(   98) = (   0.1562500   0.2812500   0.4062500), wk =   0.0019531
        k(   99) = (   0.1562500   0.2812500   0.4687500), wk =   0.0039062
        k(  100) = (   0.1562500   0.2812500  -0.4687500), wk =   0.0039062
        k(  101) = (   0.1562500   0.3437500  -0.4687500), wk =   0.0019531
        k(  102) = (   0.1562500   0.3437500  -0.4062500), wk =   0.0039062
        k(  103) = (   0.1562500   0.4687500   0.1562500), wk =   0.0019531
        k(  104) = (   0.1562500  -0.4687500   0.1562500), wk =   0.0019531
        k(  105) = (   0.1562500  -0.4062500   0.1562500), wk =   0.0019531
        k(  106) = (   0.1562500  -0.4062500   0.2187500), wk =   0.0039062
        k(  107) = (   0.1562500  -0.3437500   0.1562500), wk =   0.0009766
        k(  108) = (   0.1562500  -0.3437500   0.2187500), wk =   0.0039062
        k(  109) = (   0.1562500  -0.2812500   0.2812500), wk =   0.0019531
        k(  110) = (   0.2187500   0.2187500   0.2187500), wk =   0.0004883
        k(  111) = (   0.2187500   0.2187500   0.2812500), wk =   0.0019531
        k(  112) = (   0.2187500   0.2187500   0.3437500), wk =   0.0019531
        k(  113) = (   0.2187500   0.2187500   0.4062500), wk =   0.0019531
        k(  114) = (   0.2187500   0.2187500   0.4687500), wk =   0.0019531
        k(  115) = (   0.2187500   0.2812500   0.3437500), wk =   0.0019531
        k(  116) = (   0.2187500   0.2812500   0.4062500), wk =   0.0039062
        k(  117) = (   0.2187500   0.2812500   0.4687500), wk =   0.0039062
        k(  118) = (   0.2187500   0.2812500  -0.4687500), wk =   0.0039062
        k(  119) = (   0.2187500   0.3437500   0.4687500), wk =   0.0019531
        k(  120) = (   0.2187500   0.3437500  -0.4687500), wk =   0.0039062
        k(  121) = (   0.2187500   0.4062500  -0.4062500), wk =   0.0019531
        k(  122) = (   0.2187500  -0.3437500   0.2187500), wk =   0.0019531
        k(  123) = (   0.2187500  -0.2812500   0.2187500), wk =   0.0009766
        k(  124) = (   0.2812500   0.2812500   0.2812500), wk =   0.0004883
        k(  125) = (   0.2812500   0.2812500   0.3437500), wk =   0.0019531
        k(  126) = (   0.2812500   0.2812500   0.4062500), wk =   0.0019531
        k(  127) = (   0.2812500   0.2812500   0.4687500), wk =   0.0019531
        k(  128) = (   0.2812500   0.3437500   0.4062500), wk =   0.0019531
        k(  129) = (   0.2812500   0.3437500   0.4687500), wk =   0.0039062
        k(  130) = (   0.2812500   0.3437500  -0.4687500), wk =   0.0039062
        k(  131) = (   0.2812500   0.4062500  -0.4687500), wk =   0.0019531
        k(  132) = (   0.3437500   0.3437500   0.3437500), wk =   0.0004883
        k(  133) = (   0.3437500   0.3437500   0.4062500), wk =   0.0019531
        k(  134) = (   0.3437500   0.3437500   0.4687500), wk =   0.0019531
        k(  135) = (   0.3437500   0.4062500   0.4687500), wk =   0.0019531
        k(  136) = (   0.3437500   0.4062500  -0.4687500), wk =   0.0039062
        k(  137) = (   0.4062500   0.4062500   0.4062500), wk =   0.0004883
        k(  138) = (   0.4062500   0.4062500   0.4687500), wk =   0.0019531
        k(  139) = (   0.4062500   0.4687500  -0.4687500), wk =   0.0019531
        k(  140) = (   0.4687500   0.4687500   0.4687500), wk =   0.0004883
        k(  141) = (   0.0312500   0.0312500  -0.0312500), wk =   0.0009766
        k(  142) = (   0.0312500   0.0937500  -0.0312500), wk =   0.0019531
        k(  143) = (   0.0312500  -0.0937500  -0.0937500), wk =   0.0019531
        k(  144) = (   0.0312500   0.1562500  -0.0312500), wk =   0.0019531
        k(  145) = (   0.0312500  -0.1562500  -0.1562500), wk =   0.0019531
        k(  146) = (   0.0312500   0.2187500  -0.0312500), wk =   0.0019531
        k(  147) = (   0.0312500  -0.2187500  -0.2187500), wk =   0.0019531
        k(  148) = (   0.0312500   0.2812500  -0.0312500), wk =   0.0019531
        k(  149) = (   0.0312500  -0.2812500  -0.2812500), wk =   0.0019531
        k(  150) = (   0.0312500   0.3437500  -0.0312500), wk =   0.0019531
        k(  151) = (   0.0312500  -0.3437500  -0.3437500), wk =   0.0019531
        k(  152) = (   0.0312500   0.4062500  -0.0312500), wk =   0.0019531
        k(  153) = (   0.0312500  -0.4062500  -0.4062500), wk =   0.0019531
        k(  154) = (   0.0312500   0.4687500  -0.0312500), wk =   0.0019531
        k(  155) = (   0.0312500  -0.4687500  -0.4687500), wk =   0.0019531
        k(  156) = (   0.0312500   0.0937500  -0.0937500), wk =   0.0039062
        k(  157) = (   0.0312500   0.1562500  -0.0937500), wk =   0.0039062
        k(  158) = (   0.0312500  -0.2187500  -0.1562500), wk =   0.0039062
        k(  159) = (   0.0312500   0.2187500  -0.0937500), wk =   0.0039062
        k(  160) = (   0.0312500  -0.2812500  -0.2187500), wk =   0.0039062
        k(  161) = (   0.0312500   0.2812500  -0.0937500), wk =   0.0039062
        k(  162) = (   0.0312500  -0.3437500  -0.2812500), wk =   0.0039062
        k(  163) = (   0.0312500   0.3437500  -0.0937500), wk =   0.0039062
        k(  164) = (   0.0312500  -0.4062500  -0.3437500), wk =   0.0039062
        k(  165) = (   0.0312500   0.4062500  -0.0937500), wk =   0.0039062
        k(  166) = (   0.0312500  -0.4687500  -0.4062500), wk =   0.0039062
        k(  167) = (   0.0312500  -0.5312500  -0.0937500), wk =   0.0019531
        k(  168) = (   0.0312500  -0.0937500  -0.1562500), wk =   0.0039062
        k(  169) = (   0.0312500   0.1562500  -0.1562500), wk =   0.0039062
        k(  170) = (   0.0312500   0.2187500  -0.1562500), wk =   0.0039062
        k(  171) = (   0.0312500  -0.3437500  -0.2187500), wk =   0.0039062
        k(  172) = (   0.0312500   0.2812500  -0.1562500), wk =   0.0039062
        k(  173) = (   0.0312500  -0.4062500  -0.2812500), wk =   0.0039062
        k(  174) = (   0.0312500   0.3437500  -0.1562500), wk =   0.0039062
        k(  175) = (   0.0312500  -0.4687500  -0.3437500), wk =   0.0039062
        k(  176) = (   0.0312500  -0.5937500  -0.1562500), wk =   0.0039062
        k(  177) = (   0.0312500   0.4687500   0.5937500), wk =   0.0039062
        k(  178) = (   0.0312500  -0.1562500  -0.2187500), wk =   0.0039062
        k(  179) = (   0.0312500  -0.0937500  -0.2187500), wk =   0.0019531
        k(  180) = (   0.0312500   0.2187500  -0.2187500), wk =   0.0039062
        k(  181) = (   0.0312500   0.2812500  -0.2187500), wk =   0.0039062
        k(  182) = (   0.0312500  -0.4687500  -0.2812500), wk =   0.0039062
        k(  183) = (   0.0312500  -0.6562500  -0.2187500), wk =   0.0039062
        k(  184) = (   0.0312500   0.4687500   0.6562500), wk =   0.0039062
        k(  185) = (   0.0312500  -0.5937500  -0.2187500), wk =   0.0019531
        k(  186) = (   0.0312500  -0.2187500  -0.2812500), wk =   0.0039062
        k(  187) = (   0.0312500  -0.1562500  -0.2812500), wk =   0.0039062
        k(  188) = (   0.0312500  -0.0937500   0.1562500), wk =   0.0039062
        k(  189) = (   0.0312500  -0.7187500  -0.2812500), wk =   0.0039062
        k(  190) = (   0.0312500  -0.6562500  -0.2812500), wk =   0.0039062
        k(  191) = (   0.0312500   0.4062500   0.6562500), wk =   0.0039062
        k(  192) = (   0.0312500  -0.2812500  -0.3437500), wk =   0.0039062
        k(  193) = (   0.0312500  -0.2187500  -0.3437500), wk =   0.0039062
        k(  194) = (   0.0312500  -0.0937500   0.2187500), wk =   0.0039062
        k(  195) = (   0.0312500  -0.1562500  -0.3437500), wk =   0.0019531
        k(  196) = (   0.0312500  -0.3437500  -0.4062500), wk =   0.0039062
        k(  197) = (   0.0312500  -0.2812500  -0.4062500), wk =   0.0039062
        k(  198) = (   0.0312500  -0.0937500   0.2812500), wk =   0.0039062
        k(  199) = (   0.0312500  -0.2187500  -0.4062500), wk =   0.0039062
        k(  200) = (   0.0312500  -0.1562500   0.2187500), wk =   0.0039062
        k(  201) = (   0.0312500  -0.4062500  -0.4687500), wk =   0.0039062
        k(  202) = (   0.0312500  -0.3437500  -0.4687500), wk =   0.0039062
        k(  203) = (   0.0312500  -0.0937500   0.3437500), wk =   0.0039062
        k(  204) = (   0.0312500  -0.2812500  -0.4687500), wk =   0.0039062
        k(  205) = (   0.0312500  -0.1562500   0.2812500), wk =   0.0039062
        k(  206) = (   0.0312500  -0.2187500  -0.4687500), wk =   0.0019531
        k(  207) = (   0.0312500   0.5312500   0.4687500), wk =   0.0019531
        k(  208) = (   0.0312500   0.5937500   0.4687500), wk =   0.0039062
        k(  209) = (   0.0312500  -0.0937500  -0.5937500), wk =   0.0039062
        k(  210) = (   0.0312500   0.6562500   0.4687500), wk =   0.0039062
        k(  211) = (   0.0312500  -0.1562500  -0.6562500), wk =   0.0039062
        k(  212) = (   0.0312500   0.7187500   0.4687500), wk =   0.0039062
        k(  213) = (   0.0312500  -0.2187500  -0.7187500), wk =   0.0039062
        k(  214) = (   0.0312500   0.5937500   0.4062500), wk =   0.0039062
        k(  215) = (   0.0312500   0.6562500   0.4062500), wk =   0.0039062
        k(  216) = (   0.0312500  -0.2187500  -0.6562500), wk =   0.0039062
        k(  217) = (   0.0312500   0.7187500   0.4062500), wk =   0.0019531
        k(  218) = (   0.0312500   0.6562500   0.3437500), wk =   0.0039062
        k(  219) = (   0.0937500   0.0937500  -0.0937500), wk =   0.0009766
        k(  220) = (   0.0937500   0.1562500  -0.0937500), wk =   0.0019531
        k(  221) = (   0.0937500  -0.1562500  -0.1562500), wk =   0.0019531
        k(  222) = (   0.0937500   0.2187500  -0.0937500), wk =   0.0019531
        k(  223) = (   0.0937500  -0.2187500  -0.2187500), wk =   0.0019531
        k(  224) = (   0.0937500   0.2812500  -0.0937500), wk =   0.0019531
        k(  225) = (   0.0937500  -0.2812500  -0.2812500), wk =   0.0019531
        k(  226) = (   0.0937500   0.3437500  -0.0937500), wk =   0.0019531
        k(  227) = (   0.0937500  -0.3437500  -0.3437500), wk =   0.0019531
        k(  228) = (   0.0937500   0.4062500  -0.0937500), wk =   0.0019531
        k(  229) = (   0.0937500  -0.4062500  -0.4062500), wk =   0.0019531
        k(  230) = (   0.0937500   0.4687500  -0.0937500), wk =   0.0019531
        k(  231) = (   0.0937500  -0.4687500  -0.4687500), wk =   0.0019531
        k(  232) = (   0.0937500   0.1562500  -0.1562500), wk =   0.0039062
        k(  233) = (   0.0937500   0.2187500  -0.1562500), wk =   0.0039062
        k(  234) = (   0.0937500  -0.2812500  -0.2187500), wk =   0.0039062
        k(  235) = (   0.0937500   0.2812500  -0.1562500), wk =   0.0039062
        k(  236) = (   0.0937500  -0.3437500  -0.2812500), wk =   0.0039062
        k(  237) = (   0.0937500   0.3437500  -0.1562500), wk =   0.0039062
        k(  238) = (   0.0937500  -0.4062500  -0.3437500), wk =   0.0039062
        k(  239) = (   0.0937500   0.4062500  -0.1562500), wk =   0.0039062
        k(  240) = (   0.0937500  -0.4687500  -0.4062500), wk =   0.0039062
        k(  241) = (   0.0937500  -0.5312500  -0.1562500), wk =   0.0019531
        k(  242) = (   0.0937500   0.2187500  -0.2187500), wk =   0.0039062
        k(  243) = (   0.0937500   0.2812500  -0.2187500), wk =   0.0039062
        k(  244) = (   0.0937500  -0.4062500  -0.2812500), wk =   0.0039062
        k(  245) = (   0.0937500   0.3437500  -0.2187500), wk =   0.0039062
        k(  246) = (   0.0937500  -0.4687500  -0.3437500), wk =   0.0039062
        k(  247) = (   0.0937500  -0.5937500  -0.2187500), wk =   0.0039062
        k(  248) = (   0.0937500   0.4687500   0.5937500), wk =   0.0039062
        k(  249) = (   0.0937500   0.2812500  -0.2812500), wk =   0.0039062
        k(  250) = (   0.0937500  -0.6562500  -0.2812500), wk =   0.0039062
        k(  251) = (   0.0937500   0.4687500   0.6562500), wk =   0.0039062
        k(  252) = (   0.0937500  -0.5937500  -0.2812500), wk =   0.0019531
        k(  253) = (   0.0937500  -0.1562500  -0.3437500), wk =   0.0039062
        k(  254) = (   0.0937500  -0.6562500  -0.3437500), wk =   0.0039062
        k(  255) = (   0.0937500  -0.2187500  -0.4062500), wk =   0.0039062
        k(  256) = (   0.0937500  -0.1562500  -0.4062500), wk =   0.0019531
        k(  257) = (   0.0937500  -0.2812500  -0.4687500), wk =   0.0039062
        k(  258) = (   0.0937500  -0.2187500  -0.4687500), wk =   0.0039062
        k(  259) = (   0.0937500  -0.1562500   0.2187500), wk =   0.0039062
        k(  260) = (   0.0937500   0.6562500   0.4687500), wk =   0.0039062
        k(  261) = (   0.0937500   0.7187500   0.4687500), wk =   0.0039062
        k(  262) = (   0.0937500  -0.1562500  -0.7187500), wk =   0.0039062
        k(  263) = (   0.0937500   0.7812500   0.4687500), wk =   0.0019531
        k(  264) = (   0.0937500   0.5937500   0.4062500), wk =   0.0019531
        k(  265) = (   0.0937500   0.6562500   0.4062500), wk =   0.0039062
        k(  266) = (   0.0937500  -0.1562500  -0.6562500), wk =   0.0039062
        k(  267) = (   0.0937500   0.7187500   0.4062500), wk =   0.0039062
        k(  268) = (   0.0937500  -0.2187500  -0.7187500), wk =   0.0039062
        k(  269) = (   0.0937500   0.6562500   0.3437500), wk =   0.0039062
        k(  270) = (   0.0937500   0.7187500   0.3437500), wk =   0.0019531
        k(  271) = (   0.1562500   0.1562500  -0.1562500), wk =   0.0009766
        k(  272) = (   0.1562500   0.2187500  -0.1562500), wk =   0.0019531
        k(  273) = (   0.1562500  -0.2187500  -0.2187500), wk =   0.0019531
        k(  274) = (   0.1562500   0.2812500  -0.1562500), wk =   0.0019531
        k(  275) = (   0.1562500  -0.2812500  -0.2812500), wk =   0.0019531
        k(  276) = (   0.1562500   0.3437500  -0.1562500), wk =   0.0019531
        k(  277) = (   0.1562500  -0.3437500  -0.3437500), wk =   0.0019531
        k(  278) = (   0.1562500   0.4062500  -0.1562500), wk =   0.0019531
        k(  279) = (   0.1562500  -0.4062500  -0.4062500), wk =   0.0019531
        k(  280) = (   0.1562500   0.4687500  -0.1562500), wk =   0.0019531
        k(  281) = (   0.1562500  -0.4687500  -0.4687500), wk =   0.0019531
        k(  282) = (   0.1562500   0.2187500  -0.2187500), wk =   0.0039062
        k(  283) = (   0.1562500   0.2812500  -0.2187500), wk =   0.0039062
        k(  284) = (   0.1562500  -0.3437500  -0.2812500), wk =   0.0039062
        k(  285) = (   0.1562500   0.3437500  -0.2187500), wk =   0.0039062
        k(  286) = (   0.1562500  -0.4062500  -0.3437500), wk =   0.0039062
        k(  287) = (   0.1562500   0.4062500  -0.2187500), wk =   0.0039062
        k(  288) = (   0.1562500  -0.4687500  -0.4062500), wk =   0.0039062
        k(  289) = (   0.1562500  -0.5312500  -0.2187500), wk =   0.0019531
        k(  290) = (   0.1562500   0.2812500  -0.2812500), wk =   0.0039062
        k(  291) = (   0.1562500   0.3437500  -0.2812500), wk =   0.0039062
        k(  292) = (   0.1562500  -0.4687500  -0.3437500), wk =   0.0039062
        k(  293) = (   0.1562500  -0.5937500  -0.2812500), wk =   0.0039062
        k(  294) = (   0.1562500   0.4687500   0.5937500), wk =   0.0039062
        k(  295) = (   0.1562500  -0.6562500  -0.3437500), wk =   0.0039062
        k(  296) = (   0.1562500  -0.5937500  -0.3437500), wk =   0.0019531
        k(  297) = (   0.1562500   0.7812500   0.4687500), wk =   0.0039062
        k(  298) = (   0.1562500   0.7187500   0.4062500), wk =   0.0039062
        k(  299) = (   0.1562500   0.7812500   0.4062500), wk =   0.0019531
        k(  300) = (   0.1562500   0.6562500   0.3437500), wk =   0.0019531
        k(  301) = (   0.1562500   0.7187500   0.3437500), wk =   0.0039062
        k(  302) = (   0.1562500  -0.2187500  -0.7187500), wk =   0.0039062
        k(  303) = (   0.2187500   0.2187500  -0.2187500), wk =   0.0009766
        k(  304) = (   0.2187500   0.2812500  -0.2187500), wk =   0.0019531
        k(  305) = (   0.2187500  -0.2812500  -0.2812500), wk =   0.0019531
        k(  306) = (   0.2187500   0.3437500  -0.2187500), wk =   0.0019531
        k(  307) = (   0.2187500  -0.3437500  -0.3437500), wk =   0.0019531
        k(  308) = (   0.2187500   0.4062500  -0.2187500), wk =   0.0019531
        k(  309) = (   0.2187500  -0.4062500  -0.4062500), wk =   0.0019531
        k(  310) = (   0.2187500   0.4687500  -0.2187500), wk =   0.0019531
        k(  311) = (   0.2187500  -0.4687500  -0.4687500), wk =   0.0019531
        k(  312) = (   0.2187500   0.2812500  -0.2812500), wk =   0.0039062
        k(  313) = (   0.2187500   0.3437500  -0.2812500), wk =   0.0039062
        k(  314) = (   0.2187500  -0.4062500  -0.3437500), wk =   0.0039062
        k(  315) = (   0.2187500   0.4062500  -0.2812500), wk =   0.0039062
        k(  316) = (   0.2187500  -0.4687500  -0.4062500), wk =   0.0039062
        k(  317) = (   0.2187500  -0.5312500  -0.2812500), wk =   0.0019531
        k(  318) = (   0.2187500   0.3437500  -0.3437500), wk =   0.0039062
        k(  319) = (   0.2187500  -0.5937500  -0.3437500), wk =   0.0039062
        k(  320) = (   0.2187500   0.4687500   0.5937500), wk =   0.0039062
        k(  321) = (   0.2187500   0.7187500   0.2812500), wk =   0.0019531
        k(  322) = (   0.2812500   0.2812500  -0.2812500), wk =   0.0009766
        k(  323) = (   0.2812500   0.3437500  -0.2812500), wk =   0.0019531
        k(  324) = (   0.2812500  -0.3437500  -0.3437500), wk =   0.0019531
        k(  325) = (   0.2812500   0.4062500  -0.2812500), wk =   0.0019531
        k(  326) = (   0.2812500  -0.4062500  -0.4062500), wk =   0.0019531
        k(  327) = (   0.2812500   0.4687500  -0.2812500), wk =   0.0019531
        k(  328) = (   0.2812500  -0.4687500  -0.4687500), wk =   0.0019531
        k(  329) = (   0.2812500   0.3437500  -0.3437500), wk =   0.0039062
        k(  330) = (   0.2812500   0.4062500  -0.3437500), wk =   0.0039062
        k(  331) = (   0.2812500  -0.4687500  -0.4062500), wk =   0.0039062
        k(  332) = (   0.2812500  -0.5312500  -0.3437500), wk =   0.0019531
        k(  333) = (   0.2812500  -0.5937500  -0.4062500), wk =   0.0039062
        k(  334) = (   0.3437500   0.3437500  -0.3437500), wk =   0.0009766
        k(  335) = (   0.3437500   0.4062500  -0.3437500), wk =   0.0019531
        k(  336) = (   0.3437500  -0.4062500  -0.4062500), wk =   0.0019531
        k(  337) = (   0.3437500   0.4687500  -0.3437500), wk =   0.0019531
        k(  338) = (   0.3437500  -0.4687500  -0.4687500), wk =   0.0019531
        k(  339) = (   0.3437500   0.4062500  -0.4062500), wk =   0.0039062
        k(  340) = (   0.3437500  -0.5312500  -0.4062500), wk =   0.0019531
        k(  341) = (   0.4062500   0.4062500  -0.4062500), wk =   0.0009766
        k(  342) = (   0.4062500   0.4687500  -0.4062500), wk =   0.0019531
        k(  343) = (   0.4062500  -0.4687500  -0.4687500), wk =   0.0019531
        k(  344) = (   0.4687500   0.4687500  -0.4687500), wk =   0.0009766

     Dense  grid:     3151 G-vectors     FFT dimensions: (  20,  20,  20)

     Largest allocated arrays     est. size (Mb)     dimensions
        Kohn-Sham Wavefunctions         0.26 Mb     (     840,   20)
        NL pseudopotentials             0.10 Mb     (     420,   16)
        Each V/rho on FFT grid          0.12 Mb     (    8000)
        Each G-vector array             0.02 Mb     (    3151)
        G-vector shells                 0.00 Mb     (      62)
     Largest temporary arrays     est. size (Mb)     dimensions
        Auxiliary wavefunctions         1.03 Mb     (     840,   80)
        Each subspace H/S matrix        0.10 Mb     (      80,   80)
        Each <psi_i|beta_j> matrix      0.01 Mb     (      16,   2,   20)

     Check: negative/imaginary core charge=   -0.000019    0.000000

     The potential is recalculated from file :
     ./Fe_nscf_e45_k16_nb20_so.save/charge-density.dat

     Starting wfc are   18 randomized atomic wfcs +    2 random wfc

     Band Structure Calculation
     Davidson diagonalization with overlap

     Computing kpt #:     1
     total cpu time spent up to now is        0.9 secs

     Computing kpt #:     2
     total cpu time spent up to now is        1.3 secs

     Computing kpt #:     3
     total cpu time spent up to now is        1.5 secs

     Computing kpt #:     4
     total cpu time spent up to now is        1.7 secs

     Computing kpt #:     5
     total cpu time spent up to now is        1.9 secs

     Computing kpt #:     6
     total cpu time spent up to now is        2.1 secs

     Computing kpt #:     7
     total cpu time spent up to now is        2.2 secs

     Computing kpt #:     8
     total cpu time spent up to now is        2.3 secs

     Computing kpt #:     9
     total cpu time spent up to now is        2.6 secs

     Computing kpt #:    10
     total cpu time spent up to now is        2.8 secs

     Computing kpt #:    11
     total cpu time spent up to now is        3.0 secs

     Computing kpt #:    12
     total cpu time spent up to now is        3.1 secs

     Computing kpt #:    13
     total cpu time spent up to now is        3.3 secs

     Computing kpt #:    14
     total cpu time spent up to now is        3.5 secs

     Computing kpt #:    15
     total cpu time spent up to now is        3.6 secs

     Computing kpt #:    16
     total cpu time spent up to now is        3.8 secs

     Computing kpt #:    17
     total cpu time spent up to now is        4.1 secs

     Computing kpt #:    18
     total cpu time spent up to now is        4.3 secs

     Computing kpt #:    19
     total cpu time spent up to now is        4.6 secs

     Computing kpt #:    20
     total cpu time spent up to now is        4.9 secs

     Computing kpt #:    21
     total cpu time spent up to now is        5.1 secs

     Computing kpt #:    22
     total cpu time spent up to now is        5.3 secs

     Computing kpt #:    23
     total cpu time spent up to now is        5.5 secs

     Computing kpt #:    24
     total cpu time spent up to now is        5.9 secs

     Computing kpt #:    25
     total cpu time spent up to now is        6.2 secs

     Computing kpt #:    26
     total cpu time spent up to now is        6.4 secs

     Computing kpt #:    27
     total cpu time spent up to now is        6.5 secs

     Computing kpt #:    28
     total cpu time spent up to now is        6.7 secs

     Computing kpt #:    29
     total cpu time spent up to now is        6.8 secs

     Computing kpt #:    30
     total cpu time spent up to now is        7.0 secs

     Computing kpt #:    31
     total cpu time spent up to now is        7.2 secs

     Computing kpt #:    32
     total cpu time spent up to now is        7.3 secs

     Computing kpt #:    33
     total cpu time spent up to now is        7.7 secs

     Computing kpt #:    34
     total cpu time spent up to now is        8.0 secs

     Computing kpt #:    35
     total cpu time spent up to now is        8.4 secs

     Computing kpt #:    36
     total cpu time spent up to now is        8.6 secs

     Computing kpt #:    37
     total cpu time spent up to now is        9.1 secs

     Computing kpt #:    38
     total cpu time spent up to now is        9.6 secs

     Computing kpt #:    39
     total cpu time spent up to now is       10.2 secs

     Computing kpt #:    40
     total cpu time spent up to now is       10.7 secs

     Computing kpt #:    41
     total cpu time spent up to now is       11.0 secs

     Computing kpt #:    42
     total cpu time spent up to now is       11.5 secs

     Computing kpt #:    43
     total cpu time spent up to now is       11.9 secs

     Computing kpt #:    44
     total cpu time spent up to now is       12.3 secs

     Computing kpt #:    45
     total cpu time spent up to now is       12.8 secs

     Computing kpt #:    46
     total cpu time spent up to now is       13.3 secs

     Computing kpt #:    47
     total cpu time spent up to now is       13.9 secs

     Computing kpt #:    48
     total cpu time spent up to now is       14.3 secs

     Computing kpt #:    49
     total cpu time spent up to now is       14.8 secs

     Computing kpt #:    50
     total cpu time spent up to now is       15.3 secs

     Computing kpt #:    51
     total cpu time spent up to now is       15.8 secs

     Computing kpt #:    52
     total cpu time spent up to now is       16.5 secs

     Computing kpt #:    53
     total cpu time spent up to now is       17.1 secs

     Computing kpt #:    54
     total cpu time spent up to now is       17.5 secs

     Computing kpt #:    55
     total cpu time spent up to now is       17.9 secs

     Computing kpt #:    56
     total cpu time spent up to now is       18.6 secs

     Computing kpt #:    57
     total cpu time spent up to now is       19.3 secs

     Computing kpt #:    58
     total cpu time spent up to now is       19.8 secs

     Computing kpt #:    59
     total cpu time spent up to now is       20.4 secs

     Computing kpt #:    60
     total cpu time spent up to now is       20.8 secs

     Computing kpt #:    61
     total cpu time spent up to now is       21.2 secs

     Computing kpt #:    62
     total cpu time spent up to now is       21.6 secs

     Computing kpt #:    63
     total cpu time spent up to now is       21.9 secs

     Computing kpt #:    64
     total cpu time spent up to now is       22.3 secs

     Computing kpt #:    65
     total cpu time spent up to now is       22.6 secs

     Computing kpt #:    66
     total cpu time spent up to now is       23.0 secs

     Computing kpt #:    67
     total cpu time spent up to now is       23.5 secs

     Computing kpt #:    68
     total cpu time spent up to now is       24.0 secs

     Computing kpt #:    69
     total cpu time spent up to now is       24.6 secs

     Computing kpt #:    70
     total cpu time spent up to now is       25.1 secs

     Computing kpt #:    71
     total cpu time spent up to now is       25.4 secs

     Computing kpt #:    72
     total cpu time spent up to now is       25.9 secs

     Computing kpt #:    73
     total cpu time spent up to now is       26.4 secs

     Computing kpt #:    74
     total cpu time spent up to now is       26.8 secs

     Computing kpt #:    75
     total cpu time spent up to now is       27.3 secs

     Computing kpt #:    76
     total cpu time spent up to now is       27.9 secs

     Computing kpt #:    77
     total cpu time spent up to now is       28.3 secs

     Computing kpt #:    78
     total cpu time spent up to now is       28.7 secs

     Computing kpt #:    79
     total cpu time spent up to now is       29.1 secs

     Computing kpt #:    80
     total cpu time spent up to now is       29.5 secs

     Computing kpt #:    81
     total cpu time spent up to now is       30.1 secs

     Computing kpt #:    82
     total cpu time spent up to now is       30.3 secs

     Computing kpt #:    83
     total cpu time spent up to now is       30.5 secs

     Computing kpt #:    84
     total cpu time spent up to now is       30.7 secs

     Computing kpt #:    85
     total cpu time spent up to now is       31.0 secs

     Computing kpt #:    86
     total cpu time spent up to now is       31.6 secs

     Computing kpt #:    87
     total cpu time spent up to now is       32.0 secs

     Computing kpt #:    88
     total cpu time spent up to now is       32.4 secs

     Computing kpt #:    89
     total cpu time spent up to now is       32.9 secs

     Computing kpt #:    90
     total cpu time spent up to now is       33.5 secs

     Computing kpt #:    91
     total cpu time spent up to now is       33.9 secs

     Computing kpt #:    92
     total cpu time spent up to now is       34.4 secs

     Computing kpt #:    93
     total cpu time spent up to now is       34.7 secs

     Computing kpt #:    94
     total cpu time spent up to now is       35.3 secs

     Computing kpt #:    95
     total cpu time spent up to now is       35.8 secs

     Computing kpt #:    96
     total cpu time spent up to now is       36.2 secs

     Computing kpt #:    97
     total cpu time spent up to now is       36.8 secs

     Computing kpt #:    98
     total cpu time spent up to now is       37.2 secs

     Computing kpt #:    99
     total cpu time spent up to now is       37.7 secs

     Computing kpt #:   100
     total cpu time spent up to now is       38.3 secs

     Computing kpt #:   101
     total cpu time spent up to now is       38.8 secs

     Computing kpt #:   102
     total cpu time spent up to now is       39.5 secs

     Computing kpt #:   103
     total cpu time spent up to now is       40.2 secs

     Computing kpt #:   104
     total cpu time spent up to now is       41.0 secs

     Computing kpt #:   105
     total cpu time spent up to now is       42.0 secs

     Computing kpt #:   106
     total cpu time spent up to now is       43.0 secs

     Computing kpt #:   107
     total cpu time spent up to now is       43.9 secs

     Computing kpt #:   108
     total cpu time spent up to now is       45.0 secs

     Computing kpt #:   109
     total cpu time spent up to now is       46.6 secs

     Computing kpt #:   110
     total cpu time spent up to now is       47.7 secs

     Computing kpt #:   111
     total cpu time spent up to now is       48.5 secs

     Computing kpt #:   112
     total cpu time spent up to now is       49.3 secs

     Computing kpt #:   113
     total cpu time spent up to now is       49.6 secs

     Computing kpt #:   114
     total cpu time spent up to now is       50.1 secs

     Computing kpt #:   115
     total cpu time spent up to now is       50.4 secs

     Computing kpt #:   116
     total cpu time spent up to now is       50.6 secs

     Computing kpt #:   117
     total cpu time spent up to now is       50.9 secs

     Computing kpt #:   118
     total cpu time spent up to now is       51.2 secs

     Computing kpt #:   119
     total cpu time spent up to now is       51.4 secs

     Computing kpt #:   120
     total cpu time spent up to now is       51.8 secs

     Computing kpt #:   121
     total cpu time spent up to now is       52.1 secs

     Computing kpt #:   122
     total cpu time spent up to now is       52.4 secs

     Computing kpt #:   123
     total cpu time spent up to now is       52.8 secs

     Computing kpt #:   124
     total cpu time spent up to now is       53.1 secs

     Computing kpt #:   125
     total cpu time spent up to now is       53.3 secs

     Computing kpt #:   126
     total cpu time spent up to now is       53.6 secs

     Computing kpt #:   127
     total cpu time spent up to now is       53.9 secs

     Computing kpt #:   128
     total cpu time spent up to now is       54.2 secs

     Computing kpt #:   129
     total cpu time spent up to now is       54.4 secs

     Computing kpt #:   130
     total cpu time spent up to now is       54.7 secs

     Computing kpt #:   131
     total cpu time spent up to now is       55.1 secs

     Computing kpt #:   132
     total cpu time spent up to now is       55.3 secs

     Computing kpt #:   133
     total cpu time spent up to now is       55.6 secs

     Computing kpt #:   134
     total cpu time spent up to now is       55.9 secs

     Computing kpt #:   135
     total cpu time spent up to now is       56.5 secs

     Computing kpt #:   136
     total cpu time spent up to now is       57.0 secs

     Computing kpt #:   137
     total cpu time spent up to now is       57.4 secs

     Computing kpt #:   138
     total cpu time spent up to now is       57.8 secs

     Computing kpt #:   139
     total cpu time spent up to now is       58.1 secs

     Computing kpt #:   140
     total cpu time spent up to now is       58.5 secs

     Computing kpt #:   141
     total cpu time spent up to now is       59.1 secs

     Computing kpt #:   142
     total cpu time spent up to now is       59.6 secs

     Computing kpt #:   143
     total cpu time spent up to now is       60.3 secs

     Computing kpt #:   144
     total cpu time spent up to now is       61.0 secs

     Computing kpt #:   145
     total cpu time spent up to now is       61.6 secs

     Computing kpt #:   146
     total cpu time spent up to now is       62.2 secs

     Computing kpt #:   147
     total cpu time spent up to now is       63.1 secs

     Computing kpt #:   148
     total cpu time spent up to now is       64.1 secs

     Computing kpt #:   149
     total cpu time spent up to now is       65.2 secs

     Computing kpt #:   150
     total cpu time spent up to now is       66.0 secs

     Computing kpt #:   151
     total cpu time spent up to now is       66.7 secs

     Computing kpt #:   152
     total cpu time spent up to now is       67.8 secs

     Computing kpt #:   153
     total cpu time spent up to now is       68.6 secs

     Computing kpt #:   154
     total cpu time spent up to now is       69.5 secs

     Computing kpt #:   155
     total cpu time spent up to now is       70.3 secs

     Computing kpt #:   156
     total cpu time spent up to now is       71.0 secs

     Computing kpt #:   157
     total cpu time spent up to now is       71.7 secs

[...]
     0.0000   0.0000   0.0000   0.0000

          k = 0.5625 0.0000-0.1250 (   413 PWs)   bands (ev):

     9.3849  10.3559  10.4120  11.5234  12.0447  12.7105  13.1177  13.6921
    14.3745  14.6790  15.5772  16.8757  26.7399  27.5548  29.8229  30.4684
    32.5515  33.0272  35.9014  36.3100

     occupation numbers 
     1.0000   1.0000   1.0000   1.0000   1.0000   1.0000   0.9950   0.5755
     0.0041   0.0000   0.0000   0.0000   0.0000   0.0000   0.0000   0.0000
     0.0000   0.0000   0.0000   0.0000

          k =-0.1875 0.6250 0.0000 (   415 PWs)   bands (ev):

     9.5199  10.2962  10.9843  11.4285  12.1497  12.3793  13.5670  13.5852
    14.5602  16.0376  16.1089  17.7174  23.9548  24.9316  28.8289  29.4381
    32.1626  32.6620  37.5388  37.8775

     occupation numbers 
     1.0000   1.0000   1.0000   1.0000   1.0000   1.0000   0.7613   0.7373
     0.0003   0.0000   0.0000   0.0000   0.0000   0.0000   0.0000   0.0000
     0.0000   0.0000   0.0000   0.0000

          k = 0.6250 0.0000-0.1875 (   415 PWs)   bands (ev):

     9.5202  10.2958  10.9848  11.4277  12.1493  12.3815  13.5453  13.6050
    14.5608  16.0534  16.0930  17.7176  23.9545  24.9316  28.8290  29.4381
    32.1627  32.6620  37.5387  37.8775

     occupation numbers 
     1.0000   1.0000   1.0000   1.0000   1.0000   1.0000   0.7885   0.7098
     0.0003   0.0000   0.0000   0.0000   0.0000   0.0000   0.0000   0.0000
     0.0000   0.0000   0.0000   0.0000

          k =-0.2500 0.6875 0.0000 (   415 PWs)   bands (ev):

     9.5594  10.2973  11.3580  11.3900  12.1653  12.1994  13.5319  13.7945
    14.5918  16.3639  17.5871  18.8399  21.7881  22.9873  28.2950  28.8751
    31.9694  32.4807  39.2452  39.4144

     occupation numbers 
     1.0000   1.0000   1.0000   1.0000   1.0000   1.0000   0.8041   0.4069
     0.0002   0.0000   0.0000   0.0000   0.0000   0.0000   0.0000   0.0000
     0.0000   0.0000   0.0000   0.0000

          k = 0.6875 0.0000-0.2500 (   415 PWs)   bands (ev):

     9.5596  10.2969  11.3640  11.3840  12.1513  12.2147  13.5269  13.7977
    14.5926  16.3639  17.5868  18.8398  21.7877  22.9873  28.2952  28.8751
    31.9695  32.4808  39.2450  39.4143

     occupation numbers 
     1.0000   1.0000   1.0000   1.0000   1.0000   1.0000   0.8099   0.4019
     0.0002   0.0000   0.0000   0.0000   0.0000   0.0000   0.0000   0.0000
     0.0000   0.0000   0.0000   0.0000

          k =-0.0625 0.5625-0.0625 (   415 PWs)   bands (ev):

     9.3613  10.2864  10.3431  11.6998  11.9914  12.7172  12.9544  13.8779
    14.2564  14.5940  15.4037  16.8293  28.5183  28.5466  29.2312  29.2648
    33.7792  33.8033  34.1974  34.3362

     occupation numbers 
     1.0000   1.0000   1.0000   1.0000   1.0000   1.0000   0.9994   0.2803
     0.0156   0.0002   0.0000   0.0000   0.0000   0.0000   0.0000   0.0000
     0.0000   0.0000   0.0000   0.0000

          k =-0.1250 0.6250-0.0625 (   415 PWs)   bands (ev):

     9.5743  10.1133  10.9246  11.6357  12.2268  12.3626  13.3252  13.8124
    14.5534  15.8186  15.9002  17.6263  25.6551  26.4756  27.5054  28.1897
    33.2515  33.7506  35.2590  35.6996

     occupation numbers 
     1.0000   1.0000   1.0000   1.0000   1.0000   1.0000   0.9569   0.3784
     0.0003   0.0000   0.0000   0.0000   0.0000   0.0000   0.0000   0.0000
     0.0000   0.0000   0.0000   0.0000

          k = 0.6250-0.0625-0.1250 (   415 PWs)   bands (ev):

     9.5744  10.1132  10.9247  11.6353  12.2258  12.3648  13.3238  13.8126
    14.5537  15.8251  15.8938  17.6264  25.6549  26.4756  27.5056  28.1897
    33.2517  33.7507  35.2589  35.6996

     occupation numbers 
     1.0000   1.0000   1.0000   1.0000   1.0000   1.0000   0.9574   0.3782
     0.0003   0.0000   0.0000   0.0000   0.0000   0.0000   0.0000   0.0000
     0.0000   0.0000   0.0000   0.0000

          k =-0.1875 0.6875-0.0625 (   412 PWs)   bands (ev):

     9.6404  10.0532  11.3901  11.5729  12.1033  12.3607  13.6364  13.7294
    14.7254  16.1740  17.5927  18.9318  23.0565  24.0436  26.8049  27.4571
    32.9305  33.4498  37.0100  37.3580

     occupation numbers 
     1.0000   1.0000   1.0000   1.0000   1.0000   1.0000   0.6635   0.5141
     0.0000   0.0000   0.0000   0.0000   0.0000   0.0000   0.0000   0.0000
     0.0000   0.0000   0.0000   0.0000

          k = 0.6875-0.0625-0.1875 (   412 PWs)   bands (ev):

     9.6407  10.0529  11.3913  11.5714  12.1013  12.3642  13.6285  13.7356
    14.7261  16.1739  17.5925  18.9318  23.0562  24.0436  26.8051  27.4571
    32.9306  33.4498  37.0098  37.3579

     occupation numbers 
     1.0000   1.0000   1.0000   1.0000   1.0000   1.0000   0.6755   0.5038
     0.0000   0.0000   0.0000   0.0000   0.0000   0.0000   0.0000   0.0000
     0.0000   0.0000   0.0000   0.0000

          k = 0.7500-0.2500-0.0625 (   408 PWs)   bands (ev):

     9.6401  10.0872  11.5434  11.5995  12.0004  12.4106  13.6944  13.7903
    14.7872  16.3451  18.8406  19.9325  21.5220  22.6853  26.5566  27.1922
    32.8311  33.3597  38.3576  38.4997

     occupation numbers 
     1.0000   1.0000   1.0000   1.0000   1.0000   1.0000   0.5719   0.4137
     0.0000   0.0000   0.0000   0.0000   0.0000   0.0000   0.0000   0.0000
     0.0000   0.0000   0.0000   0.0000

          k =-0.1250 0.6875-0.1250 (   410 PWs)   bands (ev):

     9.7350   9.9053  11.3940  11.5846  12.0848  12.5879  13.4854  13.7270
    14.9465  16.0006  17.5730  18.9552  24.6767  24.9876  25.5274  25.7524
    34.7217  34.9023  35.0919  35.4559

     occupation numbers 
     1.0000   1.0000   1.0000   1.0000   1.0000   1.0000   0.8531   0.5181
     0.0000   0.0000   0.0000   0.0000   0.0000   0.0000   0.0000   0.0000
     0.0000   0.0000   0.0000   0.0000

          k = 0.8125-0.2500-0.1250 (   409 PWs)   bands (ev):

     9.7389   9.8870  11.5145  11.7081  11.8993  12.8224  13.5083  13.6090
    15.2230  16.0229  19.4617  20.5740  22.3954  23.3673  24.4307  25.1913
    34.5695  35.0141  36.6520  36.9894

     occupation numbers 
     1.0000   1.0000   1.0000   1.0000   1.0000   0.9999   0.8302   0.7040
     0.0000   0.0000   0.0000   0.0000   0.0000   0.0000   0.0000   0.0000
     0.0000   0.0000   0.0000   0.0000

          k =-0.2500-0.1250 0.8125 (   409 PWs)   bands (ev):

     9.7392   9.8867  11.5149  11.7077  11.8991  12.8241  13.5020  13.6138
    15.2233  16.0227  19.4617  20.5738  22.3952  23.3673  24.4309  25.1914
    34.5696  35.0141  36.6519  36.9893

     occupation numbers 
     1.0000   1.0000   1.0000   1.0000   1.0000   0.9999   0.8366   0.6971
     0.0000   0.0000   0.0000   0.0000   0.0000   0.0000   0.0000   0.0000
     0.0000   0.0000   0.0000   0.0000

          k =-0.5000 0.4375 0.5000 (   420 PWs)   bands (ev):

    10.3253  10.3639  10.6107  11.9879  12.0356  12.1551  12.6947  12.6961
    15.8594  15.8762  21.1962  22.2011  22.2283  23.2066  23.8721  24.3257
    24.6877  25.1522  50.8325  51.2101

     occupation numbers 
     1.0000   1.0000   1.0000   1.0000   1.0000   1.0000   1.0000   1.0000
     0.0000   0.0000   0.0000   0.0000   0.0000   0.0000   0.0000   0.0000
     0.0000   0.0000   0.0000   0.0000

          k = 0.0000 0.5625 0.0000 (   410 PWs)   bands (ev):

     9.3369  10.2189  10.3667  11.9398  11.9422  12.7537  12.8630  14.1269
    14.1328  14.5214  15.2244  16.8164  29.5356  29.5357  30.2107  30.2108
    32.6342  32.6353  33.1116  33.2260

     occupation numbers 
     1.0000   1.0000   1.0000   1.0000   1.0000   1.0000   0.9999   0.0529
     0.0503   0.0006   0.0000   0.0000   0.0000   0.0000   0.0000   0.0000
     0.0000   0.0000   0.0000   0.0000

          k =-0.0625 0.6250 0.0000 (   414 PWs)   bands (ev):

     9.4887  10.0751  10.7910  12.0419  12.1851  12.4223  13.1066  14.2511
    14.4235  15.5580  15.5973  17.3750  27.2201  27.9079  28.1979  28.8061
    32.2669  32.8643  33.2844  33.8375

     occupation numbers 
     1.0000   1.0000   1.0000   1.0000   1.0000   1.0000   0.9957   0.0164
     0.0022   0.0000   0.0000   0.0000   0.0000   0.0000   0.0000   0.0000
     0.0000   0.0000   0.0000   0.0000

          k = 0.6250 0.0000-0.0625 (   414 PWs)   bands (ev):

     9.4887  10.0751  10.7910  12.0415  12.1846  12.4237  13.1059  14.2508
    14.4238  15.5707  15.5847  17.3751  27.2198  27.9082  28.1979  28.8062
    32.2671  32.8643  33.2843  33.8374

     occupation numbers 
     1.0000   1.0000   1.0000   1.0000   1.0000   1.0000   0.9957   0.0165
     0.0022   0.0000   0.0000   0.0000   0.0000   0.0000   0.0000   0.0000
     0.0000   0.0000   0.0000   0.0000

          k =-0.1250 0.6875 0.0000 (   413 PWs)   bands (ev):

     9.5675   9.8459  11.2316  12.0290  12.0753  12.3450  13.5427  14.2634
    14.6307  16.0623  17.1577  18.5182  24.5324  25.3482  27.1667  27.7459
    32.0232  32.6664  34.8011  35.2925

     occupation numbers 
     1.0000   1.0000   1.0000   1.0000   1.0000   1.0000   0.7915   0.0145
     0.0001   0.0000   0.0000   0.0000   0.0000   0.0000   0.0000   0.0000
     0.0000   0.0000   0.0000   0.0000

          k = 0.6875 0.0000-0.1250 (   413 PWs)   bands (ev):

     9.5678   9.8456  11.2319  12.0292  12.0717  12.3490  13.5413  14.2623
    14.6324  16.0623  17.1574  18.5182  24.5322  25.3482  27.1669  27.7459
    32.0234  32.6665  34.8010  35.2924

     occupation numbers 
     1.0000   1.0000   1.0000   1.0000   1.0000   1.0000   0.7931   0.0146
     0.0001   0.0000   0.0000   0.0000   0.0000   0.0000   0.0000   0.0000
     0.0000   0.0000   0.0000   0.0000

          k =-0.1875 0.7500 0.0000 (   410 PWs)   bands (ev):

     9.5581   9.8244  11.5379  11.8329  12.0154  12.4453  13.7829  14.2302
    14.7284  16.3461  18.9452  19.9967  22.2131  23.2074  26.6122  27.1542
    31.8934  32.5561  36.5336  36.8625

     occupation numbers 
     1.0000   1.0000   1.0000   1.0000   1.0000   1.0000   0.4258   0.0203
     0.0000   0.0000   0.0000   0.0000   0.0000   0.0000   0.0000   0.0000
     0.0000   0.0000   0.0000   0.0000

          k = 0.7500 0.0000-0.1875 (   410 PWs)   bands (ev):

     9.5584   9.8241  11.5391  11.8312  12.0139  12.4484  13.7807  14.2299
    14.7301  16.3459  18.9452  19.9966  22.2129  23.2074  26.6124  27.1542
    31.8936  32.5562  36.5335  36.8624

     occupation numbers 
     1.0000   1.0000   1.0000   1.0000   1.0000   1.0000   0.4294   0.0204
     0.0000   0.0000   0.0000   0.0000   0.0000   0.0000   0.0000   0.0000
     0.0000   0.0000   0.0000   0.0000

          k =-0.0625 0.6875-0.0625 (   415 PWs)   bands (ev):

     9.5097   9.7986  11.1517  12.0608  12.1596  12.5236  13.3353  14.3736
    14.8015  15.8312  16.9998  18.3719  26.0804  26.1456  26.7788  26.8095
    32.8369  33.0049  33.3801  33.6717

     occupation numbers 
     1.0000   1.0000   1.0000   1.0000   1.0000   1.0000   0.9530   0.0041
     0.0000   0.0000   0.0000   0.0000   0.0000   0.0000   0.0000   0.0000
     0.0000   0.0000   0.0000   0.0000

          k =-0.1250 0.7500-0.0625 (   411 PWs)   bands (ev):

     9.5448   9.6443  11.4411  11.7950  12.1456  12.7686  13.6071  14.3473
    15.0983  16.1361  18.8016  19.8788  23.6615  24.4420  25.3832  25.9965
    32.6957  33.3151  34.4917  35.0252

     occupation numbers 
     1.0000   1.0000   1.0000   1.0000   1.0000   1.0000   0.7067   0.0056
     0.0000   0.0000   0.0000   0.0000   0.0000   0.0000   0.0000   0.0000
     0.0000   0.0000   0.0000   0.0000

          k = 0.7500-0.0625-0.1250 (   411 PWs)   bands (ev):

     9.5450   9.6441  11.4414  11.7946  12.1453  12.7699  13.6062  14.3471
    15.0990  16.1359  18.8016  19.8787  23.6613  24.4420  25.3834  25.9965
    32.6959  33.3152  34.4915  35.0251

     occupation numbers 
     1.0000   1.0000   1.0000   1.0000   1.0000   1.0000   0.7081   0.0057
     0.0000   0.0000   0.0000   0.0000   0.0000   0.0000   0.0000   0.0000
     0.0000   0.0000   0.0000   0.0000

          k = 0.8125-0.1875-0.0625 (   408 PWs)   bands (ev):

     9.5174   9.6315  11.6065  11.6396  12.1495  12.8468  13.7560  14.3418
    15.1928  16.3003  20.3091  21.1789  21.9163  22.8512  25.1149  25.7069
    32.6341  33.2708  35.8259  36.1326

     occupation numbers 
     1.0000   1.0000   1.0000   1.0000   1.0000   0.9999   0.4700   0.0060
     0.0000   0.0000   0.0000   0.0000   0.0000   0.0000   0.0000   0.0000
     0.0000   0.0000   0.0000   0.0000

          k = 0.8750-0.1875-0.1250 (   412 PWs)   bands (ev):

     9.5055   9.5287  11.5504  11.6223  12.1220  13.1974  13.5152  14.2896
    15.6154  16.0164  20.7137  21.5901  22.8385  23.4848  23.6224  24.2186
    33.9949  34.4477  34.5218  35.0448

     occupation numbers 
     1.0000   1.0000   1.0000   1.0000   1.0000   0.9877   0.8227   0.0109
     0.0000   0.0000   0.0000   0.0000   0.0000   0.0000   0.0000   0.0000
     0.0000   0.0000   0.0000   0.0000

          k = 0.0000 0.6875 0.0000 (   414 PWs)   bands (ev):

     9.4559   9.7490  11.0831  12.0469  12.4808  12.4811  13.2399  14.7317
    14.7333  15.7266  16.8136  18.1874  26.7642  26.7644  27.3694  27.3695
    31.9822  32.1151  32.6298  32.8530

     occupation numbers 
     1.0000   1.0000   1.0000   1.0000   1.0000   1.0000   0.9808   0.0000
     0.0000   0.0000   0.0000   0.0000   0.0000   0.0000   0.0000   0.0000
     0.0000   0.0000   0.0000   0.0000

          k =-0.0625 0.7500 0.0000 (   410 PWs)   bands (ev):

     9.4436   9.5379  11.2978  11.7609  12.6805  12.7585  13.4894  14.9749
    15.0553  16.0073  18.4199  19.4672  24.9525  25.5355  25.7552  26.2520
    31.8920  32.6186  32.7267  33.4340

     occupation numbers 
     1.0000   1.0000   1.0000   1.0000   1.0000   1.0000   0.8493   0.0000
     0.0000   0.0000   0.0000   0.0000   0.0000   0.0000   0.0000   0.0000
     0.0000   0.0000   0.0000   0.0000

          k = 0.7500 0.0000-0.0625 (   410 PWs)   bands (ev):

     9.4437   9.5379  11.2978  11.7609  12.6774  12.7621  13.4889  14.9717
    15.0587  16.0071  18.4199  19.4672  24.9524  25.5355  25.7553  26.2520
    31.8922  32.6186  32.7265  33.4339

     occupation numbers 
     1.0000   1.0000   1.0000   1.0000   1.0000   1.0000   0.8498   0.0000
     0.0000   0.0000   0.0000   0.0000   0.0000   0.0000   0.0000   0.0000
     0.0000   0.0000   0.0000   0.0000

          k =-0.1250 0.8125 0.0000 (   406 PWs)   bands (ev):

     9.4004   9.4427  11.4272  11.5687  12.7314  12.9320  13.7628  15.0438
    15.2413  16.3210  20.2650  21.0779  22.7939  23.5246  25.1503  25.6245
    31.8310  32.5940  34.1856  34.7166

     occupation numbers 
     1.0000   1.0000   1.0000   1.0000   1.0000   0.9996   0.4589   0.0000
     0.0000   0.0000   0.0000   0.0000   0.0000   0.0000   0.0000   0.0000
     0.0000   0.0000   0.0000   0.0000

          k = 0.8125 0.0000-0.1250 (   406 PWs)   bands (ev):

     9.4006   9.4425  11.4273  11.5687  12.7292  12.9350  13.7619  15.0412
    15.2444  16.3206  20.2652  21.0775  22.7939  23.5245  25.1504  25.6246
    31.8312  32.5941  34.1854  34.7165

     occupation numbers 
     1.0000   1.0000   1.0000   1.0000   1.0000   0.9996   0.4604   0.0000
     0.0000   0.0000   0.0000   0.0000   0.0000   0.0000   0.0000   0.0000
     0.0000   0.0000   0.0000   0.0000

          k =-0.0625 0.8125-0.0625 (   410 PWs)   bands (ev):

     9.3452   9.3514  11.3467  11.5218  12.7934  13.1542  13.6366  15.0953
    15.5438  16.1706  20.1138  20.9148  24.0716  24.2314  24.6449  24.7842
    32.3110  32.7955  32.9694  33.5591

     occupation numbers 
     1.0000   1.0000   1.0000   1.0000   1.0000   0.9924   0.6633   0.0000
     0.0000   0.0000   0.0000   0.0000   0.0000   0.0000   0.0000   0.0000
     0.0000   0.0000   0.0000   0.0000

          k = 0.8750-0.1250-0.0625 (   407 PWs)   bands (ev):

     9.2952   9.3314  11.4055  11.4183  12.7904  13.3526  13.7351  15.0929
    15.7874  16.2723  21.7301  22.3599  22.4679  23.1218  23.9025  24.4075
    32.4324  33.1198  33.6827  34.1945

     occupation numbers 
     1.0000   1.0000   1.0000   1.0000   1.0000   0.9454   0.5046   0.0000
     0.0000   0.0000   0.0000   0.0000   0.0000   0.0000   0.0000   0.0000
     0.0000   0.0000   0.0000   0.0000

          k = 0.0000 0.8125 0.0000 (   406 PWs)   bands (ev):

     9.2641   9.3541  11.2592  11.5383  13.1902  13.1932  13.5242  15.5698
    15.5723  16.0520  19.8786  20.6399  24.6118  24.6118  25.0868  25.0868
    31.6548  32.0577  32.4300  32.9155

     occupation numbers 
     1.0000   1.0000   1.0000   1.0000   0.9886   0.9882   0.8129   0.0000
     0.0000   0.0000   0.0000   0.0000   0.0000   0.0000   0.0000   0.0000
     0.0000   0.0000   0.0000   0.0000

          k =-0.0625 0.8750 0.0000 (   402 PWs)   bands (ev):

     9.2001   9.2154  11.2819  11.3509  13.3873  13.4347  13.7237  15.8221
    15.8681  16.2756  21.5431  22.1031  23.3260  23.7619  24.0432  24.4028
    31.7033  32.4973  32.5004  33.2419

     occupation numbers 
     1.0000   1.0000   1.0000   1.0000   0.9275   0.8963   0.5236   0.0000
     0.0000   0.0000   0.0000   0.0000   0.0000   0.0000   0.0000   0.0000
     0.0000   0.0000   0.0000   0.0000

          k = 0.8750 0.0000-0.0625 (   402 PWs)   bands (ev):

     9.2003   9.2152  11.2819  11.3509  13.3811  13.4422  13.7225  15.8149
    15.8761  16.2748  21.5434  22.1025  23.3270  23.7611  24.0430  24.4031
    31.7035  32.4970  32.5006  33.2418

     occupation numbers 
     1.0000   1.0000   1.0000   1.0000   0.9311   0.8906   0.5256   0.0000
     0.0000   0.0000   0.0000   0.0000   0.0000   0.0000   0.0000   0.0000
     0.0000   0.0000   0.0000   0.0000

          k = 0.0000 0.9375 0.0000 (   406 PWs)   bands (ev):

     9.0618   9.0805  11.1926  11.1936  13.6369  13.7209  13.7335  16.1853
    16.2526  16.2687  22.6654  22.9982  23.3716  23.3840  23.6945  23.6961
    31.4635  31.7722  32.2904  32.5727

     occupation numbers 
     1.0000   1.0000   1.0000   1.0000   0.6627   0.5283   0.5073   0.0000
     0.0000   0.0000   0.0000   0.0000   0.0000   0.0000   0.0000   0.0000
     0.0000   0.0000   0.0000   0.0000

     the Fermi energy is    13.7379 ev

     Writing output data file Fe_nscf_e45_k16_nb20_so.save

     init_run     :      0.26s CPU      0.29s WALL (       1 calls)
     electrons    :     97.99s CPU    147.60s WALL (       1 calls)

     Called by init_run:
     wfcinit      :      0.00s CPU      0.00s WALL (       1 calls)
     potinit      :      0.02s CPU      0.03s WALL (       1 calls)

     Called by electrons:
     c_bands      :     97.95s CPU    147.57s WALL (       1 calls)
     v_of_rho     :      0.02s CPU      0.02s WALL (       1 calls)
     v_h          :      0.00s CPU      0.00s WALL (       1 calls)
     v_xc         :      0.02s CPU      0.02s WALL (       1 calls)

     Called by c_bands:
     init_us_2    :      0.09s CPU      0.09s WALL (     344 calls)
     cegterg      :     90.39s CPU    137.62s WALL (     352 calls)

     Called by sum_band:

     Called by *egterg:
     h_psi        :     55.93s CPU     69.16s WALL (    5520 calls)
     g_psi        :      0.35s CPU      0.32s WALL (    4824 calls)
     cdiaghg      :     27.61s CPU     57.48s WALL (    5168 calls)
     cegterg:over :      4.64s CPU      6.84s WALL (    4824 calls)
     cegterg:upda :      4.61s CPU      6.93s WALL (    4824 calls)
     cegterg:last :      2.81s CPU      4.13s WALL (    1053 calls)

     Called by h_psi:
     h_psi:vloc   :     47.89s CPU     49.12s WALL (    5520 calls)
     h_psi:vnl    :      7.78s CPU     19.78s WALL (    5520 calls)
     add_vuspsi   :      1.14s CPU      1.82s WALL (    5520 calls)

     General routines
     calbec       :      6.60s CPU     17.91s WALL (    5520 calls)
     fft          :      0.01s CPU      0.01s WALL (      23 calls)
     fftw         :     39.04s CPU     40.09s WALL (  265064 calls)

     Parallel routines
     fft_scatter  :      4.74s CPU      4.85s WALL (  265087 calls)

     PWSCF        :  1m40.60s CPU     2m30.25s WALL


   This run was terminated on:  17:27: 4  26Jul2018            

=------------------------------------------------------------------------------=
   JOB DONE.
=------------------------------------------------------------------------------=
