
     Program PWSCF v.5.0.2 (svn rev. 9656) starts on 30Jun2015 at 16:48: 1 

     This program is part of the open-source Quantum ESPRESSO suite
     for quantum simulation of materials; please cite
         "P. Giannozzi et al., J. Phys.:Condens. Matter 21 395502 (2009);
          URL http://www.quantum-espresso.org", 
     in publications or presentations arising from this work. More details at
     http://www.quantum-espresso.org/quote.php

     Parallel version (MPI), running on     1 processors

     Current dimensions of program PWSCF are:
     Max number of different atomic species (ntypx) = 10
     Max number of k-points (npk) =  40000
     Max angular momentum in pseudopotentials (lmaxx) =  3
     Waiting for input...
     Reading input from standard input

     Fixed quantization axis for GGA:     0.000000    0.000000    1.000000

     Subspace diagonalization in iterative solution of the eigenvalue problem:
     a serial algorithm will be used


     G-vector sticks info
     --------------------
     sticks:   dense  smooth     PW     G-vecs:    dense   smooth      PW
     Sum         467     467    151                 6363     6363    1157

     Generating pointlists ...
     new r_m :   0.3572 (alat units)  1.9362 (a.u.) for type    1


     bravais-lattice index     =            3
     lattice parameter (alat)  =       5.4200  a.u.
     unit-cell volume          =      79.6100 (a.u.)^3
     number of atoms/cell      =            1
     number of atomic types    =            1
     number of electrons       =         8.00
     number of Kohn-Sham states=           16
     kinetic-energy cutoff     =      70.0000  Ry
     charge density cutoff     =     280.0000  Ry
     convergence threshold     =      1.0E-08
     mixing beta               =       0.7000
     number of iterations used =            8  plain     mixing
     Exchange-correlation      = PBE ( 1 4 3 4 0)
     EXX-fraction              =        0.00
     Noncollinear calculation with spin-orbit


     celldm(1)=   5.420000  celldm(2)=   0.000000  celldm(3)=   0.000000
     celldm(4)=   0.000000  celldm(5)=   0.000000  celldm(6)=   0.000000

     crystal axes: (cart. coord. in units of alat)
               a(1) = (   0.500000   0.500000   0.500000 )  
               a(2) = (  -0.500000   0.500000   0.500000 )  
               a(3) = (  -0.500000  -0.500000   0.500000 )  

     reciprocal axes: (cart. coord. in units 2 pi/alat)
               b(1) = (  1.000000  0.000000  1.000000 )  
               b(2) = ( -1.000000  1.000000  0.000000 )  
               b(3) = (  0.000000 -1.000000  1.000000 )  


     PseudoPot. # 1 for Fe read from file:
     ./Fe.rel-pbe-n-nc.UPF
     MD5 check sum: 94258d60e67ccf79570366bad73e55f4
     Pseudo is Norm-conserving + core correction, Zval =  8.0
     Generated using "atomic" code by A. Dal Corso  v.5.0.2 svn rev. 10042M
     Using radial grid of 1191 points,  4 beta functions with: 
                l(1) =   1
                l(2) =   1
                l(3) =   2
                l(4) =   2

     atomic species   valence    mass     pseudopotential
        Fe             8.00    55.84500     Fe( 1.00)

     16 Sym. Ops., with inversion, found



   Cartesian axes

     site n.     atom                  positions (alat units)
         1           Fe  tau(   1) = (   0.0000000   0.0000000   0.0000000  )

     number of k points=    99  gaussian smearing, width (Ry)=  0.0250
                       cart. coord. in units 2pi/alat
        k(    1) = (   0.0000000   0.0000000   0.1000000), wk =   0.0020000
        k(    2) = (   0.0000000  -0.1000000   0.2000000), wk =   0.0080000
        k(    3) = (   0.0000000  -0.2000000   0.3000000), wk =   0.0080000
        k(    4) = (   0.0000000  -0.3000000   0.4000000), wk =   0.0080000
        k(    5) = (   0.0000000  -0.4000000   0.5000000), wk =   0.0080000
        k(    6) = (  -0.1000000   0.1000000   0.1000000), wk =   0.0080000
        k(    7) = (  -0.1000000  -0.1000000   0.3000000), wk =   0.0080000
        k(    8) = (  -0.1000000  -0.2000000   0.4000000), wk =   0.0160000
        k(    9) = (  -0.1000000  -0.3000000   0.5000000), wk =   0.0160000
        k(   10) = (  -0.1000000   0.6000000  -0.4000000), wk =   0.0160000
        k(   11) = (  -0.2000000   0.2000000   0.1000000), wk =   0.0080000
        k(   12) = (  -0.2000000  -0.2000000   0.5000000), wk =   0.0080000
        k(   13) = (  -0.2000000   0.7000000  -0.4000000), wk =   0.0160000
        k(   14) = (  -0.3000000   0.3000000   0.1000000), wk =   0.0080000
        k(   15) = (  -0.3000000   0.2000000   0.2000000), wk =   0.0160000
        k(   16) = (  -0.3000000   0.7000000  -0.3000000), wk =   0.0080000
        k(   17) = (  -0.4000000   0.4000000   0.1000000), wk =   0.0080000
        k(   18) = (  -0.4000000   0.3000000   0.2000000), wk =   0.0160000
        k(   19) = (   0.5000000  -0.5000000   0.1000000), wk =   0.0040000
        k(   20) = (   0.5000000  -0.6000000   0.2000000), wk =   0.0160000
        k(   21) = (   0.5000000  -0.7000000   0.3000000), wk =   0.0160000
        k(   22) = (   0.4000000  -0.6000000   0.3000000), wk =   0.0080000
        k(   23) = (   0.0000000   0.0000000   0.3000000), wk =   0.0020000
        k(   24) = (   0.0000000  -0.1000000   0.4000000), wk =   0.0080000
        k(   25) = (   0.0000000  -0.2000000   0.5000000), wk =   0.0080000
        k(   26) = (   0.0000000  -0.3000000   0.6000000), wk =   0.0080000
        k(   27) = (  -0.1000000  -0.1000000   0.5000000), wk =   0.0080000
        k(   28) = (  -0.1000000  -0.2000000   0.6000000), wk =   0.0160000
        k(   29) = (  -0.1000000   0.7000000  -0.3000000), wk =   0.0160000
        k(   30) = (  -0.2000000   0.8000000  -0.3000000), wk =   0.0080000
        k(   31) = (  -0.3000000   0.3000000   0.3000000), wk =   0.0080000
        k(   32) = (   0.6000000  -0.6000000   0.3000000), wk =   0.0080000
        k(   33) = (   0.5000000  -0.5000000   0.3000000), wk =   0.0040000
        k(   34) = (   0.5000000  -0.6000000   0.4000000), wk =   0.0160000
        k(   35) = (   0.0000000   0.0000000   0.5000000), wk =   0.0020000
        k(   36) = (   0.0000000  -0.1000000   0.6000000), wk =   0.0080000
        k(   37) = (   0.0000000  -0.2000000   0.7000000), wk =   0.0080000
        k(   38) = (  -0.1000000  -0.1000000   0.7000000), wk =   0.0080000
        k(   39) = (  -0.1000000   0.8000000  -0.2000000), wk =   0.0160000
        k(   40) = (   0.5000000  -0.5000000   0.5000000), wk =   0.0020000
        k(   41) = (   0.0000000   0.0000000   0.7000000), wk =   0.0020000
        k(   42) = (   0.0000000  -0.1000000   0.8000000), wk =   0.0080000
        k(   43) = (  -0.1000000   0.9000000  -0.1000000), wk =   0.0080000
        k(   44) = (   0.0000000   0.0000000   0.9000000), wk =   0.0020000
        k(   45) = (   0.0000000   0.1000000   0.0000000), wk =   0.0040000
        k(   46) = (  -0.1000000   0.2000000   0.0000000), wk =   0.0080000
        k(   47) = (   0.2000000   0.0000000  -0.1000000), wk =   0.0080000
        k(   48) = (  -0.2000000   0.3000000   0.0000000), wk =   0.0080000
        k(   49) = (   0.3000000   0.0000000  -0.2000000), wk =   0.0080000
        k(   50) = (  -0.3000000   0.4000000   0.0000000), wk =   0.0080000
        k(   51) = (   0.4000000   0.0000000  -0.3000000), wk =   0.0080000
        k(   52) = (  -0.4000000   0.5000000   0.0000000), wk =   0.0080000
        k(   53) = (   0.5000000   0.0000000  -0.4000000), wk =   0.0080000
        k(   54) = (  -0.1000000   0.3000000  -0.1000000), wk =   0.0160000
        k(   55) = (  -0.2000000   0.4000000  -0.1000000), wk =   0.0160000
        k(   56) = (   0.4000000  -0.1000000  -0.2000000), wk =   0.0160000
        k(   57) = (  -0.3000000   0.5000000  -0.1000000), wk =   0.0160000
        k(   58) = (   0.5000000  -0.1000000  -0.3000000), wk =   0.0160000
        k(   59) = (   0.6000000  -0.4000000  -0.1000000), wk =   0.0080000
        k(   60) = (   0.2000000   0.1000000  -0.2000000), wk =   0.0160000
        k(   61) = (  -0.2000000   0.5000000  -0.2000000), wk =   0.0160000
        k(   62) = (   0.7000000  -0.4000000  -0.2000000), wk =   0.0160000
        k(   63) = (  -0.4000000  -0.2000000   0.7000000), wk =   0.0160000
        k(   64) = (   0.3000000   0.1000000  -0.3000000), wk =   0.0160000
        k(   65) = (   0.2000000   0.2000000  -0.3000000), wk =   0.0080000
        k(   66) = (   0.4000000   0.1000000  -0.4000000), wk =   0.0160000
        k(   67) = (   0.3000000   0.2000000  -0.4000000), wk =   0.0160000
        k(   68) = (   0.2000000  -0.4000000   0.3000000), wk =   0.0160000
        k(   69) = (  -0.5000000   0.1000000   0.5000000), wk =   0.0080000
        k(   70) = (  -0.6000000   0.2000000   0.5000000), wk =   0.0160000
        k(   71) = (   0.2000000   0.5000000  -0.6000000), wk =   0.0160000
        k(   72) = (  -0.7000000   0.3000000   0.5000000), wk =   0.0080000
        k(   73) = (  -0.6000000   0.3000000   0.4000000), wk =   0.0160000
        k(   74) = (   0.0000000   0.3000000   0.0000000), wk =   0.0040000
        k(   75) = (  -0.1000000   0.4000000   0.0000000), wk =   0.0080000
        k(   76) = (   0.4000000   0.0000000  -0.1000000), wk =   0.0080000
        k(   77) = (  -0.2000000   0.5000000   0.0000000), wk =   0.0080000
        k(   78) = (   0.5000000   0.0000000  -0.2000000), wk =   0.0080000
        k(   79) = (  -0.3000000   0.6000000   0.0000000), wk =   0.0080000
        k(   80) = (   0.6000000   0.0000000  -0.3000000), wk =   0.0080000
        k(   81) = (  -0.1000000   0.5000000  -0.1000000), wk =   0.0160000
        k(   82) = (  -0.2000000   0.6000000  -0.1000000), wk =   0.0160000
        k(   83) = (   0.6000000  -0.1000000  -0.2000000), wk =   0.0160000
        k(   84) = (   0.7000000  -0.3000000  -0.1000000), wk =   0.0080000
        k(   85) = (   0.8000000  -0.3000000  -0.2000000), wk =   0.0160000
        k(   86) = (  -0.6000000   0.3000000   0.6000000), wk =   0.0160000
        k(   87) = (  -0.5000000   0.3000000   0.5000000), wk =   0.0080000
        k(   88) = (  -0.6000000   0.4000000   0.5000000), wk =   0.0080000
        k(   89) = (   0.0000000   0.5000000   0.0000000), wk =   0.0040000
        k(   90) = (  -0.1000000   0.6000000   0.0000000), wk =   0.0080000
        k(   91) = (   0.6000000   0.0000000  -0.1000000), wk =   0.0080000
        k(   92) = (  -0.2000000   0.7000000   0.0000000), wk =   0.0080000
        k(   93) = (   0.7000000   0.0000000  -0.2000000), wk =   0.0080000
        k(   94) = (  -0.1000000   0.7000000  -0.1000000), wk =   0.0160000
        k(   95) = (   0.8000000  -0.2000000  -0.1000000), wk =   0.0080000
        k(   96) = (   0.0000000   0.7000000   0.0000000), wk =   0.0040000
        k(   97) = (  -0.1000000   0.8000000   0.0000000), wk =   0.0080000
        k(   98) = (   0.8000000   0.0000000  -0.1000000), wk =   0.0080000
        k(   99) = (   0.0000000   0.9000000   0.0000000), wk =   0.0040000

     Dense  grid:     6363 G-vectors     FFT dimensions: (  25,  25,  25)

     Largest allocated arrays     est. size (Mb)     dimensions
        Kohn-Sham Wavefunctions         0.39 Mb     (   1590,   16)
        NL pseudopotentials             0.19 Mb     (    795,   16)
        Each V/rho on FFT grid          0.24 Mb     (  15625)
        Each G-vector array             0.05 Mb     (   6363)
        G-vector shells                 0.00 Mb     (     98)
     Largest temporary arrays     est. size (Mb)     dimensions
        Auxiliary wavefunctions         1.55 Mb     (   1590,   64)
        Each subspace H/S matrix        0.06 Mb     (  64,  64)
        Each <psi_i|beta_j> matrix      0.01 Mb     (     16,   2,   16)
        Arrays for rho mixing           1.91 Mb     (  15625,   8)

     Check: negative/imaginary core charge=   -0.000002    0.000000

     Initial potential from superposition of free atoms

     starting charge    7.99956, renormalised to    8.00000

     negative rho (up, down):  0.000E+00 0.330E-01

 ==============================================================================
     atom number    1 relative position :    0.0000   0.0000   0.0000
     charge :     6.511578
     magnetization :          0.000000    0.000000    6.511578
     magnetization/charge:    0.000000    0.000000    1.000000
     polar coord.: r, theta, phi [deg] :     6.511578    0.000000  360.000000

 ==============================================================================
     Starting wfc are   18 randomized atomic wfcs

     total cpu time spent up to now is        2.8 secs

     per-process dynamical memory:    12.9 Mb

     Self-consistent Calculation

     iteration #  1     ecut=    70.00 Ry     beta=0.70
     Davidson diagonalization with overlap
     ethr =  1.00E-02,  avg # of iterations =  3.6

 ==============================================================================
     atom number    1 relative position :    0.0000   0.0000   0.0000
     charge :     6.420102
     magnetization :          0.000000   -0.000000    4.275999
     magnetization/charge:    0.000000   -0.000000    0.666033
     polar coord.: r, theta, phi [deg] :     4.275999    0.000000  360.000000

 ==============================================================================

     total cpu time spent up to now is       10.0 secs

     total energy              =     -54.88857298 Ry
     Harris-Foulkes estimate   =     -54.69093819 Ry
     estimated scf accuracy    <       0.15776395 Ry

     total magnetization       =    -0.00    -0.00     3.47 Bohr mag/cell
     absolute magnetization    =     3.47 Bohr mag/cell

     iteration #  2     ecut=    70.00 Ry     beta=0.70
     Davidson diagonalization with overlap
     ethr =  1.97E-03,  avg # of iterations =  1.5

 ==============================================================================
     atom number    1 relative position :    0.0000   0.0000   0.0000
     charge :     6.497610
     magnetization :          0.000000   -0.000000    3.131728
     magnetization/charge:    0.000000   -0.000000    0.481981
     polar coord.: r, theta, phi [deg] :     3.131728    0.000000  360.000000

 ==============================================================================

     total cpu time spent up to now is       14.8 secs

     total energy              =     -54.95751138 Ry
     Harris-Foulkes estimate   =     -54.91701272 Ry
     estimated scf accuracy    <       0.03804013 Ry

     total magnetization       =     0.00    -0.00     2.98 Bohr mag/cell
     absolute magnetization    =     3.00 Bohr mag/cell

     iteration #  3     ecut=    70.00 Ry     beta=0.70
     Davidson diagonalization with overlap
     ethr =  4.76E-04,  avg # of iterations =  2.1

 ==============================================================================
     atom number    1 relative position :    0.0000   0.0000   0.0000
     charge :     6.457604
     magnetization :          0.000000   -0.000000    2.578533
     magnetization/charge:    0.000000   -0.000000    0.399302
     polar coord.: r, theta, phi [deg] :     2.578533    0.000000  360.000000

 ==============================================================================

     total cpu time spent up to now is       19.8 secs

     total energy              =     -54.97183228 Ry
     Harris-Foulkes estimate   =     -54.97295602 Ry
     estimated scf accuracy    <       0.01604276 Ry

     total magnetization       =    -0.00     0.00     2.65 Bohr mag/cell
     absolute magnetization    =     2.76 Bohr mag/cell

     iteration #  4     ecut=    70.00 Ry     beta=0.70
     Davidson diagonalization with overlap
     ethr =  2.01E-04,  avg # of iterations =  1.4

 ==============================================================================
     atom number    1 relative position :    0.0000   0.0000   0.0000
     charge :     6.455961
     magnetization :          0.000000   -0.000000    2.372067
     magnetization/charge:    0.000000   -0.000000    0.367423
     polar coord.: r, theta, phi [deg] :     2.372067    0.000000  360.000000

 ==============================================================================

     total cpu time spent up to now is       24.6 secs

     total energy              =     -54.97590141 Ry
     Harris-Foulkes estimate   =     -54.97618005 Ry
     estimated scf accuracy    <       0.00038008 Ry

     total magnetization       =    -0.00    -0.00     2.45 Bohr mag/cell
     absolute magnetization    =     2.60 Bohr mag/cell

     iteration #  5     ecut=    70.00 Ry     beta=0.70
     Davidson diagonalization with overlap
     ethr =  4.75E-06,  avg # of iterations =  4.4

 ==============================================================================
     atom number    1 relative position :    0.0000   0.0000   0.0000
     charge :     6.458779
     magnetization :         -0.000000    0.000000    2.395177
     magnetization/charge:   -0.000000    0.000000    0.370841
     polar coord.: r, theta, phi [deg] :     2.395177    0.000000  360.000000

 ==============================================================================

     total cpu time spent up to now is       32.7 secs

     total energy              =     -54.97677587 Ry
     Harris-Foulkes estimate   =     -54.97671937 Ry
     estimated scf accuracy    <       0.00010053 Ry

     total magnetization       =     0.00    -0.00     2.34 Bohr mag/cell
     absolute magnetization    =     2.49 Bohr mag/cell

     iteration #  6     ecut=    70.00 Ry     beta=0.70
     Davidson diagonalization with overlap
     ethr =  1.26E-06,  avg # of iterations =  1.6

 ==============================================================================
     atom number    1 relative position :    0.0000   0.0000   0.0000
     charge :     6.459313
     magnetization :         -0.000000   -0.000000    2.406108
     magnetization/charge:   -0.000000   -0.000000    0.372502
     polar coord.: r, theta, phi [deg] :     2.406108    0.000000  360.000000

 ==============================================================================

     total cpu time spent up to now is       37.6 secs

     total energy              =     -54.97680661 Ry
     Harris-Foulkes estimate   =     -54.97679324 Ry
     estimated scf accuracy    <       0.00000937 Ry

     total magnetization       =     0.00    -0.00     2.34 Bohr mag/cell
     absolute magnetization    =     2.49 Bohr mag/cell

     iteration #  7     ecut=    70.00 Ry     beta=0.70
     Davidson diagonalization with overlap
     ethr =  1.17E-07,  avg # of iterations =  3.6

 ==============================================================================
     atom number    1 relative position :    0.0000   0.0000   0.0000
     charge :     6.459227
     magnetization :          0.000000   -0.000000    2.403472
     magnetization/charge:    0.000000   -0.000000    0.372099
     polar coord.: r, theta, phi [deg] :     2.403472    0.000000  360.000000

 ==============================================================================

     total cpu time spent up to now is       44.3 secs

     total energy              =     -54.97681233 Ry
     Harris-Foulkes estimate   =     -54.97681201 Ry
     estimated scf accuracy    <       0.00000015 Ry

     total magnetization       =     0.00    -0.00     2.35 Bohr mag/cell
     absolute magnetization    =     2.49 Bohr mag/cell

     iteration #  8     ecut=    70.00 Ry     beta=0.70
     Davidson diagonalization with overlap
     ethr =  1.89E-09,  avg # of iterations =  4.1

 ==============================================================================
     atom number    1 relative position :    0.0000   0.0000   0.0000
     charge :     6.459344
     magnetization :          0.000000   -0.000000    2.403823
     magnetization/charge:    0.000000   -0.000000    0.372147
     polar coord.: r, theta, phi [deg] :     2.403823    0.000000  360.000000

 ==============================================================================

     total cpu time spent up to now is       52.5 secs

     End of self-consistent calculation

          k = 0.0000 0.0000 0.1000 (   783 PWs)   bands (ev):

     5.2847   5.4479  11.2317  11.2901  11.3134  12.3558  12.4714  13.5245
    13.5775  13.6157  15.4104  15.5713  38.3214  38.6097  39.2519  39.2562

          k = 0.0000-0.1000 0.2000 (   782 PWs)   bands (ev):

     6.0618   6.2335  11.0864  11.2269  11.7051  12.1683  12.5320  13.3365
    13.4823  14.0427  15.1405  15.6429  35.2692  35.5084  37.5674  37.6190

          k = 0.0000-0.2000 0.3000 (   787 PWs)   bands (ev):

     7.4138   7.6733  10.7933  11.1077  12.1674  12.4282  12.6029  12.9827
    13.2274  14.8304  15.0395  15.7163  30.1128  30.7843  35.1135  35.2215

          k = 0.0000-0.3000 0.4000 (   792 PWs)   bands (ev):

     8.5745   9.3422  10.5099  11.4941  12.3991  12.6391  12.8276  13.0792
    13.2452  15.1788  15.7466  15.8199  25.2667  26.2575  33.2352  33.3255

          k = 0.0000-0.4000 0.5000 (   794 PWs)   bands (ev):

     8.8433  10.3071  10.3402  12.1355  12.4025  12.4938  13.5485  13.8034
    14.0142  15.3017  16.0350  16.3967  21.6612  23.0639  32.2323  32.2944

          k =-0.1000 0.1000 0.1000 (   785 PWs)   bands (ev):

     5.6795   5.8451  11.1301  11.1518  11.6304  12.3801  12.3956  13.3958
    13.4179  13.9555  15.4458  15.4561  37.2783  37.2834  37.3146  37.3230

          k =-0.1000-0.1000 0.3000 (   782 PWs)   bands (ev):

     7.1238   7.3394  11.0145  11.0201  11.9840  12.2497  12.6722  13.2107
    13.2532  14.6069  14.8464  15.7860  32.8247  33.2200  33.3209  33.8778

          k =-0.1000-0.2000 0.4000 (   792 PWs)   bands (ev):

     8.4567   8.9238  10.6751  10.9560  12.1181  12.7431  12.8285  12.9944
    13.2927  14.8672  15.4843  15.9700  27.9295  28.7199  31.0887  31.6552

          k =-0.1000-0.3000 0.5000 (   788 PWs)   bands (ev):

     9.0923  10.3193  10.4991  11.2549  12.3390  12.5798  12.9064  13.1371
    14.7092  15.0984  15.8978  16.8102  23.4638  24.5835  29.6730  30.2518

          k =-0.1000 0.6000-0.4000 (   789 PWs)   bands (ev):

     9.1331  10.4414  10.7454  11.4898  12.3634  12.5264  13.0801  13.4432
    15.1742  16.0032  16.0802  17.5694  21.0950  22.5532  29.1411  29.7133

          k =-0.2000 0.2000 0.1000 (   784 PWs)   bands (ev):

     6.7852   6.9799  10.8624  10.9963  12.2667  12.2889  12.4700  13.0691
    13.1952  14.6395  15.2706  15.5466  32.7145  33.1796  35.0876  35.2658

          k =-0.2000-0.2000 0.5000 (   780 PWs)   bands (ev):

     9.3996  10.3339  10.3679  10.9517  12.2410  12.4040  12.8507  12.9316
    14.9522  14.9784  15.7738  17.0723  26.1350  26.3882  26.9860  27.2115

          k =-0.2000 0.7000-0.4000 (   783 PWs)   bands (ev):

     9.6673  10.3760  10.8460  11.2896  12.3006  12.4602  12.6560  13.0666
    15.1984  15.8088  17.3487  18.8766  22.2003  23.3684  25.3288  26.1472

          k =-0.3000 0.3000 0.1000 (   790 PWs)   bands (ev):

     8.1951   8.6162  10.5546  11.0309  12.3419  12.5445  12.6981  12.9257
    13.1981  15.2696  15.5703  15.6601  27.6373  28.4449  33.0596  33.2581

          k =-0.3000 0.2000 0.2000 (   786 PWs)   bands (ev):

     8.0539   8.3503  10.6407  10.6725  12.3070  12.5465  12.7657  12.7812
    13.2467  15.2707  15.5542  15.6708  30.3675  30.7200  30.9068  31.3733

          k =-0.3000 0.7000-0.3000 (   784 PWs)   bands (ev):

    10.1353  10.3461  10.3744  12.0225  12.1627  12.1776  12.7832  12.8142
    15.5096  15.5446  20.4556  20.4845  21.6371  21.6443  22.8963  23.9520

          k =-0.4000 0.4000 0.1000 (   786 PWs)   bands (ev):

     8.8689  10.0483  10.3242  12.0013  12.3757  12.5162  12.6168  13.1304
    14.3024  15.3734  15.7523  16.5207  23.2530  24.4145  31.6965  31.8630

          k =-0.4000 0.3000 0.2000 (   788 PWs)   bands (ev):

     9.1598   9.9493  10.3760  10.8423  12.3654  12.4453  12.5973  12.6592
    14.6176  15.3435  15.7483  16.7798  25.7129  26.5961  28.8809  29.5071

          k = 0.5000-0.5000 0.1000 (   786 PWs)   bands (ev):

     8.9248  10.2395  10.4746  12.2855  12.5187  12.6391  12.7721  13.6226
    15.2167  15.4199  15.7927  17.0285  21.0492  22.5523  31.2186  31.3665

          k = 0.5000-0.6000 0.2000 (   788 PWs)   bands (ev):

     9.3321  10.2525  10.8434  11.5332  12.2435  12.5299  12.7496  12.8642
    15.4527  15.8053  16.4192  18.0560  21.9130  23.1778  27.9389  28.5584

          k = 0.5000-0.7000 0.3000 (   782 PWs)   bands (ev):

     9.7540  10.2810  10.8188  11.1588  12.1480  12.4244  12.5391  12.7404
    15.4555  15.7808  16.8155  18.5180  24.1344  24.6968  25.0426  25.5898

          k = 0.4000-0.6000 0.3000 (   788 PWs)   bands (ev):

     9.8163  10.3213  10.8790  11.5416  12.1554  12.4186  12.6094  12.7515
    15.5610  15.7465  19.0029  20.2487  21.3405  22.5565  24.0529  24.9441

          k = 0.0000 0.0000 0.3000 (   771 PWs)   bands (ev):

     6.7912   6.9850  11.2924  11.3521  11.6489  11.7743  12.7369  13.5359
    13.5883  14.0647  14.5534  15.8618  35.2761  35.3165  36.3301  36.4542

          k = 0.0000-0.1000 0.4000 (   787 PWs)   bands (ev):

     8.0200   8.3444  11.0090  11.1797  11.7465  12.3448  13.0017  13.3396
    13.3867  14.3054  14.7461  16.0286  30.7399  31.3995  33.8304  34.1393

          k = 0.0000-0.2000 0.5000 (   788 PWs)   bands (ev):

     9.0310   9.8948  10.7337  10.9495  12.1094  12.8140  13.0919  13.1778
    13.8803  14.6560  15.6628  16.3773  25.7900  26.7235  31.6577  32.3598

          k = 0.0000-0.3000 0.6000 (   790 PWs)   bands (ev):

     9.2260  10.7977  10.8147  10.9150  12.1782  12.6997  12.9296  13.7499
    14.8260  15.7899  16.3353  17.3875  21.9008  23.1974  30.3619  31.0227

          k =-0.1000-0.1000 0.5000 (   788 PWs)   bands (ev):

     9.0414   9.7268  10.5115  11.2965  11.8906  12.8173  12.8446  13.4410
    13.8807  14.3432  15.3686  16.4177  28.7089  28.8160  29.4642  29.5615

          k =-0.1000-0.2000 0.6000 (   783 PWs)   bands (ev):

     9.5449  10.2696  10.9371  11.1128  12.2091  12.3419  13.2273  13.3247
    14.7165  15.8629  15.9301  17.6912  24.1311  25.1280  27.3172  28.0648

          k =-0.1000 0.7000-0.3000 (   784 PWs)   bands (ev):

     9.5324  10.4078  10.9439  11.3636  12.2471  12.3166  13.0618  13.5767
    14.8375  16.1512  17.8866  19.1499  21.3032  22.6085  26.7612  27.4876

          k =-0.2000 0.8000-0.3000 (   785 PWs)   bands (ev):

     9.9379   9.9641  10.8656  11.7524  11.9849  12.6984  12.9166  13.2218
    15.2123  15.7792  18.8370  20.1341  22.5969  23.6176  23.6336  24.5622

          k =-0.3000 0.3000 0.3000 (   790 PWs)   bands (ev):

     9.3041   9.8093  10.3687  10.3714  12.3616  12.3779  12.5241  12.5509
    14.6433  15.5709  15.6049  16.8199  28.4792  28.5326  28.9184  29.0848

          k = 0.6000-0.6000 0.3000 (   789 PWs)   bands (ev):

     9.8288  10.2197  10.7366  11.0942  12.1464  12.2737  12.5748  12.6359
    15.6206  15.7638  16.6235  18.3744  24.1489  25.0754  27.3484  27.4605

          k = 0.5000-0.5000 0.3000 (   786 PWs)   bands (ev):

     9.7619  10.1734  11.1684  11.3827  12.0728  12.5391  12.6064  12.6709
    15.6519  15.8180  18.4735  19.7370  21.4063  22.6765  26.9534  26.9800

          k = 0.5000-0.6000 0.4000 (   789 PWs)   bands (ev):

    10.0539  10.3279  10.6578  11.7686  12.0513  12.1753  12.6335  12.6697
    15.7398  15.8061  19.3388  20.6135  22.8751  23.7068  23.8084  24.6399

          k = 0.0000 0.0000 0.5000 (   771 PWs)   bands (ev):

     8.8884   9.4869  10.6434  11.6558  11.7189  12.4076  13.1926  13.6557
    13.8884  13.9274  14.8306  16.3568  30.9942  31.1502  31.7078  31.8603

          k = 0.0000-0.1000 0.6000 (   788 PWs)   bands (ev):

     9.4427  10.1155  10.6486  11.7233  12.0497  12.4484  13.0632  13.9371
    14.3567  15.1896  15.5512  17.1423  26.6976  27.5105  28.8426  29.5257

          k = 0.0000-0.2000 0.7000 (   783 PWs)   bands (ev):

     9.4959   9.9479  11.3530  11.6476  11.9654  12.2131  13.6582  13.8563
    14.5682  16.2356  17.7513  19.0157  22.5086  23.5718  27.5246  28.1475

          k =-0.1000-0.1000 0.7000 (   779 PWs)   bands (ev):

     9.5625   9.6944  11.2912  11.7968  11.9178  12.5729  13.3758  13.9981
    14.9206  15.9038  17.5576  18.8878  24.9985  25.2701  25.8035  26.0250

          k =-0.1000 0.8000-0.2000 (   783 PWs)   bands (ev):

     9.4944   9.6221  11.5798  11.6355  11.7508  12.8399  13.5302  13.9040
    15.2417  16.0732  20.1826  21.1415  21.8378  22.8467  24.5517  25.2832

          k = 0.5000-0.5000 0.5000 (   784 PWs)   bands (ev):

    10.3562  10.3671  10.3781  12.0276  12.0347  12.0360  12.6624  12.6640
    15.8303  15.8308  22.4107  22.4450  22.4815  23.3622  23.3860  23.4082

          k = 0.0000 0.0000 0.7000 (   787 PWs)   bands (ev):

     9.3983   9.6180  11.1002  11.9078  12.4778  12.5477  13.1092  14.7615
    14.8325  15.6176  17.0711  18.3913  26.4281  26.5953  27.0522  27.2146

          k = 0.0000-0.1000 0.8000 (   795 PWs)   bands (ev):

     9.2663   9.3153  11.2818  11.4816  12.6738  12.8706  13.5781  15.0174
    15.2147  16.1411  19.7898  20.6675  23.4402  24.1405  25.1144  25.6421

          k =-0.1000 0.9000-0.1000 (   793 PWs)   bands (ev):

     9.1540   9.1559  11.2730  11.2743  12.7781  13.4563  13.4858  15.1168
    15.9749  16.0021  22.3972  22.4783  23.0026  23.0980  23.1925  23.7800

          k = 0.0000 0.0000 0.9000 (   792 PWs)   bands (ev):

     8.9966   9.0010  11.1034  11.1553  13.4096  13.4791  13.5552  15.9174
    15.9892  16.1206  21.9477  22.4469  23.5429  23.7050  23.9222  24.0839

          k = 0.0000 0.1000 0.0000 (   783 PWs)   bands (ev):

     5.2847   5.4479  11.2482  11.2591  11.3283  12.3502  12.4771  13.5418
    13.5464  13.6292  15.4093  15.5723  38.3213  38.6097  39.2541  39.2542

          k =-0.1000 0.2000 0.0000 (   782 PWs)   bands (ev):

     6.0618   6.2335  11.0876  11.2254  11.7080  12.1603  12.5386  13.3387
    13.4772  14.0454  15.1385  15.6440  35.2692  35.5084  37.5678  37.6189

          k = 0.2000 0.0000-0.1000 (   782 PWs)   bands (ev):

     6.0618   6.2335  11.0872  11.2259  11.7073  12.1618  12.5375  13.3358
    13.4812  14.0442  15.1391  15.6437  35.2692  35.5083  37.5673  37.6192

          k =-0.2000 0.3000 0.0000 (   787 PWs)   bands (ev):

     7.4137   7.6733  10.7936  11.1078  12.1649  12.4233  12.6117  12.9836
    13.2247  14.8358  15.0329  15.7178  30.1129  30.7843  35.1139  35.2213

          k = 0.3000 0.0000-0.2000 (   787 PWs)   bands (ev):

     7.4137   7.6733  10.7934  11.1079  12.1680  12.4183  12.6141  12.9805
    13.2277  14.8337  15.0350  15.7174  30.1127  30.7843  35.1134  35.2217

          k =-0.3000 0.4000 0.0000 (   792 PWs)   bands (ev):

     8.5744   9.3422  10.5101  11.4936  12.3900  12.6468  12.8392  13.0646
    13.2503  15.1773  15.7476  15.8201  25.2669  26.2575  33.2359  33.3249

          k = 0.4000 0.0000-0.3000 (   792 PWs)   bands (ev):

     8.5745   9.3422  10.5100  11.4935  12.4003  12.6395  12.8239  13.0775
    13.2498  15.1797  15.7347  15.8306  25.2667  26.2575  33.2351  33.3256

          k =-0.4000 0.5000 0.0000 (   794 PWs)   bands (ev):

     8.8433  10.3071  10.3404  12.1295  12.3998  12.5039  13.5466  13.8035
    14.0149  15.2999  16.0375  16.3957  21.6615  23.0639  32.2337  32.2932

          k = 0.5000 0.0000-0.4000 (   794 PWs)   bands (ev):

     8.8433  10.3072  10.3402  12.1325  12.4154  12.4839  13.5466  13.8032
    14.0168  15.3018  16.0333  16.3979  21.6612  23.0639  32.2322  32.2945

          k =-0.1000 0.3000-0.1000 (   782 PWs)   bands (ev):

     7.1237   7.3394  11.0141  11.0211  11.9845  12.2430  12.6799  13.2108
    13.2506  14.6120  14.8407  15.7870  32.8246  33.2207  33.3202  33.8781

          k =-0.2000 0.4000-0.1000 (   792 PWs)   bands (ev):

     8.4566   8.9238  10.6757  10.9558  12.1144  12.7449  12.8338  12.9903
    13.2937  14.8668  15.4828  15.9714  27.9297  28.7199  31.0887  31.6551

          k = 0.4000-0.1000-0.2000 (   792 PWs)   bands (ev):

     8.4566   8.9238  10.6756  10.9558  12.1160  12.7456  12.8270  12.9941
    13.2946  14.8677  15.4815  15.9719  27.9294  28.7199  31.0887  31.6552

          k =-0.3000 0.5000-0.1000 (   788 PWs)   bands (ev):

     9.0921  10.3194  10.4994  11.2542  12.3347  12.5840  12.9068  13.1374
    14.7101  15.0968  15.8981  16.8105  23.4640  24.5835  29.6729  30.2517

          k = 0.5000-0.1000-0.3000 (   788 PWs)   bands (ev):

     9.0922  10.3194  10.4994  11.2541  12.3405  12.5778  12.9050  13.1389
    14.7105  15.0986  15.8960  16.8110  23.4637  24.5835  29.6730  30.2518

          k = 0.6000-0.4000-0.1000 (   789 PWs)   bands (ev):

     9.1330  10.4415  10.7458  11.4886  12.3565  12.5355  13.0792  13.4427
    15.1737  16.0000  16.0838  17.5694  21.0953  22.5532  29.1410  29.7133

          k = 0.2000 0.1000-0.2000 (   784 PWs)   bands (ev):

     6.7853   6.9799  10.8622  10.9964  12.2519  12.3117  12.4615  13.0671
    13.1980  14.6383  15.2731  15.5450  32.7145  33.1796  35.0873  35.2659

          k =-0.2000 0.5000-0.2000 (   780 PWs)   bands (ev):

     9.3995  10.3350  10.3673  10.9512  12.2400  12.4008  12.8632  12.9233
    14.9515  14.9798  15.7727  17.0728  26.1366  26.3854  26.9886  27.2101

          k = 0.7000-0.4000-0.2000 (   783 PWs)   bands (ev):

     9.6671  10.3765  10.8459  11.2891  12.3001  12.4565  12.6609  13.0663
    15.1978  15.8092  17.3487  18.8768  22.2004  23.3684  25.3287  26.1472

          k =-0.4000-0.2000 0.7000 (   783 PWs)   bands (ev):

     9.6672  10.3764  10.8455  11.2897  12.3023  12.4555  12.6585  13.0672
    15.1981  15.8091  17.3487  18.8768  22.2002  23.3683  25.3289  26.1472

          k = 0.3000 0.1000-0.3000 (   790 PWs)   bands (ev):

     8.1952   8.6162  10.5545  11.0309  12.3531  12.5326  12.6910  12.9352
    13.1964  15.2704  15.5705  15.6591  27.6371  28.4449  33.0591  33.2586

          k = 0.2000 0.2000-0.3000 (   786 PWs)   bands (ev):

     8.0539   8.3503  10.6404  10.6726  12.3130  12.5370  12.7692  12.7814
    13.2463  15.2696  15.5605  15.6658  30.3686  30.7150  30.9115  31.3723

          k = 0.4000 0.1000-0.4000 (   786 PWs)   bands (ev):

     8.8689  10.0483  10.3242  12.0009  12.3909  12.5116  12.6040  13.1321
    14.3030  15.3766  15.7488  16.5213  23.2528  24.4145  31.6954  31.8641

          k = 0.3000 0.2000-0.4000 (   788 PWs)   bands (ev):

     9.1598   9.9492  10.3758  10.8423  12.3811  12.4387  12.5784  12.6687
    14.6177  15.3449  15.7473  16.7797  25.7128  26.5961  28.8809  29.5072

          k = 0.2000-0.4000 0.3000 (   788 PWs)   bands (ev):

     9.1598   9.9492  10.3760  10.8422  12.3809  12.4320  12.5873  12.6667
    14.6179  15.3448  15.7470  16.7799  25.7127  26.5961  28.8809  29.5072

          k =-0.5000 0.1000 0.5000 (   786 PWs)   bands (ev):

     8.9249  10.2395  10.4745  12.2930  12.5193  12.6267  12.7760  13.6223
    15.2185  15.4227  15.7884  17.0289  21.0489  22.5523  31.2172  31.3680

          k =-0.6000 0.2000 0.5000 (   788 PWs)   bands (ev):

     9.3321  10.2525  10.8432  11.5331  12.2480  12.5292  12.7472  12.8623
    15.4557  15.8028  16.4192  18.0560  21.9128  23.1778  27.9389  28.5585

          k = 0.2000 0.5000-0.6000 (   788 PWs)   bands (ev):

     9.3321  10.2526  10.8432  11.5330  12.2487  12.5271  12.7463  12.8647
    15.4551  15.8036  16.4188  18.0561  21.9127  23.1778  27.9389  28.5585

          k =-0.7000 0.3000 0.5000 (   782 PWs)   bands (ev):

     9.7541  10.2807  10.8190  11.1587  12.1471  12.4416  12.5240  12.7392
    15.4574  15.7790  16.8157  18.5179  24.1345  24.6965  25.0428  25.5897

          k =-0.6000 0.3000 0.4000 (   788 PWs)   bands (ev):

     9.8162  10.3213  10.8789  11.5412  12.1575  12.4192  12.6091  12.7494
    15.5629  15.7449  19.0029  20.2486  21.3404  22.5566  24.0530  24.9441

          k = 0.0000 0.3000 0.0000 (   771 PWs)   bands (ev):

     6.7911   6.9850  11.3193  11.3200  11.6977  11.7265  12.7432  13.5569
    13.5604  14.0740  14.5483  15.8627  35.2759  35.3164  36.3718  36.3851

          k =-0.1000 0.4000 0.0000 (   787 PWs)   bands (ev):

     8.0199   8.3444  11.0097  11.1806  11.7441  12.3408  13.0110  13.3354
    13.3872  14.3062  14.7439  16.0295  30.7401  31.3993  33.8304  34.1392

          k = 0.4000 0.0000-0.1000 (   787 PWs)   bands (ev):

     8.0199   8.3444  11.0095  11.1805  11.7451  12.3398  13.0108  13.3404
    13.3821  14.3076  14.7429  16.0295  30.7399  31.3993  33.8293  34.1433

          k =-0.2000 0.5000 0.0000 (   788 PWs)   bands (ev):

     9.0308   9.8949  10.7356  10.9477  12.1081  12.8091  13.1046  13.1712
    13.8824  14.6536  15.6625  16.3782  25.7902  26.7234  31.6575  32.3595

          k = 0.5000 0.0000-0.2000 (   788 PWs)   bands (ev):

     9.0309   9.8949  10.7353  10.9474  12.1101  12.8098  13.0929  13.1794
    13.8825  14.6563  15.6600  16.3790  25.7899  26.7234  31.6576  32.3602

          k =-0.3000 0.6000 0.0000 (   790 PWs)   bands (ev):

     9.2258  10.7991  10.8199  10.9081  12.1779  12.6983  12.9327  13.7489
    14.8261  15.7898  16.3354  17.3879  21.9011  23.1974  30.3617  31.0226

          k = 0.6000 0.0000-0.3000 (   790 PWs)   bands (ev):

     9.2260  10.8007  10.8146  10.9118  12.1790  12.6993  12.9290  13.7503
    14.8261  15.7917  16.3332  17.3882  21.9007  23.1974  30.3619  31.0227

          k =-0.1000 0.5000-0.1000 (   788 PWs)   bands (ev):

     9.0412   9.7269  10.5119  11.2967  11.8893  12.7855  12.8767  13.4420
    13.8829  14.3411  15.3675  16.4187  28.7255  28.7952  29.4846  29.5452

          k =-0.2000 0.6000-0.1000 (   783 PWs)   bands (ev):

     9.5446  10.2702  10.9373  11.1121  12.2116  12.3372  13.2378  13.3166
    14.7163  15.8661  15.9269  17.6916  24.1314  25.1278  27.3172  28.0647

          k = 0.6000-0.1000-0.2000 (   783 PWs)   bands (ev):

     9.5449  10.2698  10.9377  11.1117  12.2105  12.3396  13.2291  13.3238
    14.7164  15.8809  15.9121  17.6917  24.1310  25.1278  27.3174  28.0647

          k = 0.7000-0.3000-0.1000 (   784 PWs)   bands (ev):

     9.5321  10.4085  10.9436  11.3631  12.2621  12.2999  13.0657  13.5750
    14.8371  16.1513  17.8868  19.1500  21.3035  22.6084  26.7610  27.4876

          k = 0.8000-0.3000-0.2000 (   785 PWs)   bands (ev):

     9.9347   9.9674  10.8655  11.7525  11.9847  12.6956  12.9206  13.2206
    15.2122  15.7792  18.8371  20.1344  22.5973  23.5947  23.6561  24.5619

          k =-0.6000 0.3000 0.6000 (   789 PWs)   bands (ev):

     9.8287  10.2197  10.7367  11.0938  12.1498  12.2722  12.5810  12.6279
    15.6242  15.7605  16.6236  18.3744  24.1488  25.0754  27.3418  27.4698

          k =-0.5000 0.3000 0.5000 (   786 PWs)   bands (ev):

     9.7618  10.1735  11.1686  11.3814  12.0756  12.5424  12.6205  12.6513
    15.6562  15.8142  18.4734  19.7370  21.4062  22.6765  26.9336  27.0027

          k =-0.6000 0.4000 0.5000 (   789 PWs)   bands (ev):

    10.0539  10.3278  10.6579  11.7680  12.0500  12.1786  12.6390  12.6625
    15.7431  15.8029  19.3388  20.6135  22.8753  23.7045  23.8106  24.6398

          k = 0.0000 0.5000 0.0000 (   771 PWs)   bands (ev):

     8.8882   9.4870  10.6436  11.6859  11.6883  12.4025  13.1967  13.6712
    13.8957  13.9058  14.8304  16.3576  31.0637  31.0638  31.7924  31.7927

          k =-0.1000 0.6000 0.0000 (   788 PWs)   bands (ev):

     9.4425  10.1157  10.6488  11.7248  12.0486  12.4436  13.0672  13.9392
    14.3553  15.1887  15.5513  17.1429  26.6982  27.5094  28.8435  29.5252

          k = 0.6000 0.0000-0.1000 (   788 PWs)   bands (ev):

     9.4427  10.1155  10.6489  11.7238  12.0492  12.4452  13.0657  13.9390
    14.3552  15.1920  15.5486  17.1431  26.6979  27.5094  28.8437  29.5252

          k =-0.2000 0.7000 0.0000 (   783 PWs)   bands (ev):

     9.4955   9.9482  11.3528  11.6472  11.9698  12.2077  13.6635  13.8535
    14.5669  16.2358  17.7516  19.0160  22.5089  23.5716  27.5245  28.1474

          k = 0.7000 0.0000-0.2000 (   783 PWs)   bands (ev):

     9.4959   9.9478  11.3542  11.6452  11.9665  12.2130  13.6584  13.8563
    14.5682  16.2357  17.7513  19.0160  22.5085  23.5717  27.5248  28.1474

          k =-0.1000 0.7000-0.1000 (   779 PWs)   bands (ev):

     9.5624   9.6945  11.2920  11.7943  11.9197  12.5715  13.3773  13.9983
    14.9199  15.9040  17.5577  18.8882  25.0084  25.2510  25.8248  26.0127

          k = 0.8000-0.2000-0.1000 (   783 PWs)   bands (ev):

     9.4940   9.6225  11.5775  11.6382  11.7508  12.8381  13.5329  13.9031
    15.2411  16.0734  20.1824  21.1424  21.8375  22.8465  24.5516  25.2831

          k = 0.0000 0.7000 0.0000 (   787 PWs)   bands (ev):

     9.3983   9.6178  11.1007  11.9065  12.5111  12.5122  13.1118  14.7958
    14.7977  15.6184  17.0711  18.3917  26.5008  26.5010  27.1441  27.1442

          k =-0.1000 0.8000 0.0000 (   795 PWs)   bands (ev):

     9.2661   9.3154  11.2825  11.4808  12.6776  12.8657  13.5794  15.0218
    15.2098  16.1416  19.7899  20.6679  23.4410  24.1386  25.1162  25.6411

          k = 0.8000 0.0000-0.1000 (   795 PWs)   bands (ev):

     9.2664   9.3151  11.2826  11.4806  12.6755  12.8686  13.5786  15.0193
    15.2127  16.1413  19.7899  20.6677  23.4408  24.1386  25.1164  25.6411

          k = 0.0000 0.9000 0.0000 (   792 PWs)   bands (ev):

     8.9968   9.0007  11.1041  11.1546  13.4347  13.4444  13.5647  15.9464
    15.9538  16.1270  21.9471  22.4485  23.6056  23.6072  24.0199  24.0203

     the Fermi energy is    13.6550 ev

!    total energy              =     -54.97681287 Ry
     Harris-Foulkes estimate   =     -54.97681286 Ry
     estimated scf accuracy    <          9.9E-09 Ry

     The total energy is the sum of the following terms:

     one-electron contribution =       8.88427390 Ry
     hartree contribution      =       5.62631764 Ry
     xc contribution           =     -26.51101290 Ry
     ewald contribution        =     -42.97249830 Ry
     smearing contrib. (-TS)   =      -0.00389320 Ry

     total magnetization       =    -0.00    -0.00     2.35 Bohr mag/cell
     absolute magnetization    =     2.48 Bohr mag/cell

     convergence has been achieved in   8 iterations

     Forces acting on atoms (Ry/au):

     atom    1 type  1   force =     0.00000000    0.00000000    0.00000000

     Total force =     0.000000     Total SCF correction =     0.000000


     entering subroutine stress ...

     Message from routine stres:
     noncollinear stress + GGA not implemented

     Writing output data file Fe_scf_e70_k10_nb20_so.save

     init_run     :      2.63s CPU      2.68s WALL (       1 calls)
     electrons    :     49.24s CPU     49.72s WALL (       1 calls)
     forces       :      0.43s CPU      0.43s WALL (       1 calls)

     Called by init_run:
     wfcinit      :      2.21s CPU      2.25s WALL (       1 calls)
     potinit      :      0.05s CPU      0.05s WALL (       1 calls)

     Called by electrons:
     c_bands      :     43.04s CPU     43.40s WALL (       8 calls)
     sum_band     :      5.80s CPU      5.90s WALL (       8 calls)
     v_of_rho     :      0.38s CPU      0.39s WALL (       9 calls)
     mix_rho      :      0.02s CPU      0.03s WALL (       8 calls)

     Called by c_bands:
     init_us_2    :      0.74s CPU      0.76s WALL (    1782 calls)
     cegterg      :     41.48s CPU     41.77s WALL (     792 calls)

     Called by *egterg:
     h_psi        :     28.82s CPU     29.04s WALL (    3101 calls)
     g_psi        :      0.31s CPU      0.31s WALL (    2210 calls)
     cdiaghg      :      2.47s CPU      2.46s WALL (    3002 calls)

     Called by h_psi:
     add_vuspsi   :      1.80s CPU      1.81s WALL (    3101 calls)

     General routines
     calbec       :      1.84s CPU      1.82s WALL (    3200 calls)
     fft          :      0.05s CPU      0.06s WALL (     274 calls)
     fftw         :     22.80s CPU     23.15s WALL (  162800 calls)
     davcio       :      0.29s CPU      0.30s WALL (    2673 calls)

     Parallel routines
     fft_scatter  :      2.41s CPU      2.49s WALL (  163074 calls)

     PWSCF        :    52.93s CPU        53.86s WALL


   This run was terminated on:  16:48:55  30Jun2015            

=------------------------------------------------------------------------------=
   JOB DONE.
=------------------------------------------------------------------------------=
