
.Version 7.4.1 of ABINIT 
.(MPI version, prepared for a x86_64_linux_gnu4.8 computer) 

.Copyright (C) 1998-2013 ABINIT group . 
 ABINIT comes with ABSOLUTELY NO WARRANTY.
 It is free software, and you are welcome to redistribute it
 under certain conditions (GNU General Public License,
 see ~abinit/COPYING or http://www.gnu.org/copyleft/gpl.txt).

 ABINIT is a project of the Universite Catholique de Louvain,
 Corning Inc. and other collaborators, see ~abinit/doc/developers/contributors.txt .
 Please read ~abinit/doc/users/acknowledgments.html for suggested
 acknowledgments of the ABINIT effort.
 For more information, see http://www.abinit.org .

.Starting date : Thu 19 Nov 2015.
- ( at 23h19 )
  
- input  file    -> input/01_scf.in
- output file    -> output/hbn_scf.out
- root for input  files -> io_dir/hbn_scf_in
- root for output files -> io_dir/hbn_scf_out


 Symmetries : space group P6_3/m m c (#194); Bravais hP (primitive hexag.)
================================================================================
 Values of the parameters that define the memory need of the present run
   intxc =         0  ionmov =         0    iscf =         7 xclevel =         1
  lmnmax =         1   lnmax =         1   mband =        10  mffmem =         1
P  mgfft =        72   mkmem =        12 mpssoang=         2     mpw =      2849
  mqgrid =      3467   natom =         4    nfft =     64800    nkpt =        12
  nloalg =         4  nspden =         1 nspinor =         1  nsppol =         1
    nsym =        12  n1xccc =      2501  ntypat =         2  occopt =         1
================================================================================
P This job should need less than                      25.218 Mbytes of memory.
  Rough estimation (10% accuracy) of disk space for files :
_ WF disk file :      5.219 Mbytes ; DEN or POT disk file :      0.496 Mbytes.
================================================================================

--------------------------------------------------------------------------------
------------- Echo of variables that govern the present computation ------------
--------------------------------------------------------------------------------
-
- outvars: echo of selected default values                                      
-   accesswff0 =  0 , fftalg0 =112 , wfoptalg0 =  0
-
- outvars: echo of global parameters not present in the input file              
-  max_nthreads =    0
-
 -outvars: echo values of preprocessed input variables --------
            acell      4.7163728000E+00  4.7163728000E+00  1.2175836200E+01 Bohr
              amu      1.08110000E+01  1.40067400E+01
           diemac      4.50000000E+00
             ecut      4.00000000E+01 Hartree
           istwfk        2    0    3    0    0    0    0    0    4    0
                         5    0
              kpt      0.00000000E+00  0.00000000E+00  0.00000000E+00
                       2.50000000E-01  0.00000000E+00  0.00000000E+00
                       5.00000000E-01  0.00000000E+00  0.00000000E+00
                       2.50000000E-01  2.50000000E-01  0.00000000E+00
                       0.00000000E+00  0.00000000E+00  2.50000000E-01
                       2.50000000E-01  0.00000000E+00  2.50000000E-01
                       5.00000000E-01  0.00000000E+00  2.50000000E-01
                       2.50000000E-01  2.50000000E-01  2.50000000E-01
                       0.00000000E+00  0.00000000E+00  5.00000000E-01
                       2.50000000E-01  0.00000000E+00  5.00000000E-01
                       5.00000000E-01  0.00000000E+00  5.00000000E-01
                       2.50000000E-01  2.50000000E-01  5.00000000E-01
         kptrlatt        4    0    0      0    4    0      0    0    4
          kptrlen      1.88654912E+01
P           mkmem          12
            natom           4
            nband          10
            ngfft          30      30      72
             nkpt          12
            nstep         100
             nsym          12
           ntypat           2
              occ      2.000000  2.000000  2.000000  2.000000  2.000000  2.000000
                       2.000000  2.000000  0.000000  0.000000
            rprim      1.0000000000E+00  0.0000000000E+00  0.0000000000E+00
                      -5.0000000000E-01  8.6602540378E-01  0.0000000000E+00
                       0.0000000000E+00  0.0000000000E+00  1.0000000000E+00
          spgroup         194
        symmorphi           0
           symrel      1  0  0   0  1  0   0  0  1       0 -1  0  -1  0  0   0  0 -1
                      -1 -1  0   1  0  0   0  0 -1      -1  0  0   1  1  0   0  0  1
                       0  1  0  -1 -1  0   0  0  1       1  1  0   0 -1  0   0  0 -1
                       1  0  0   0  1  0   0  0 -1       0 -1  0  -1  0  0   0  0  1
                      -1 -1  0   1  0  0   0  0  1      -1  0  0   1  1  0   0  0 -1
                       0  1  0  -1 -1  0   0  0 -1       1  1  0   0 -1  0   0  0  1
            tnons      0.0000000  0.0000000  0.0000000    -0.0000000 -0.0000000  0.0000000
                       0.0000000 -0.0000000  0.0000000     0.0000000  0.0000000  0.0000000
                      -0.0000000 -0.0000000  0.0000000     0.0000000 -0.0000000  0.0000000
                       0.0000000  0.0000000  0.0000000    -0.0000000 -0.0000000  0.0000000
                       0.0000000 -0.0000000  0.0000000     0.0000000  0.0000000  0.0000000
                      -0.0000000 -0.0000000  0.0000000     0.0000000 -0.0000000  0.0000000
           toldfe      1.00000000E-10 Hartree
            typat      1  2  1  2
              wtk        0.01563    0.09375    0.04688    0.09375    0.03125    0.18750
                         0.09375    0.18750    0.01563    0.09375    0.04688    0.09375
           xangst      1.2478984965E+00  7.2047453285E-01  0.0000000000E+00
                      -1.2478984965E+00 -7.2047453285E-01  0.0000000000E+00
                      -1.2478984965E+00 -7.2047453285E-01  3.2215875063E+00
                       1.2478984965E+00  7.2047453285E-01  3.2215875063E+00
            xcart      2.3581864000E+00  1.3614995528E+00  0.0000000000E+00
                      -2.3581864000E+00 -1.3614995528E+00  0.0000000000E+00
                      -2.3581864000E+00 -1.3614995528E+00  6.0879181000E+00
                       2.3581864000E+00  1.3614995528E+00  6.0879181000E+00
             xred      6.6666666666E-01  3.3333333333E-01  0.0000000000E+00
                      -6.6666666666E-01 -3.3333333333E-01  0.0000000000E+00
                      -6.6666666666E-01 -3.3333333333E-01  5.0000000000E-01
                       6.6666666666E-01  3.3333333333E-01  5.0000000000E-01
            znucl        5.00000    7.00000

================================================================================

 chkinp: Checking input parameters for consistency.

================================================================================
== DATASET  1 ==================================================================
-   nproc =    1

 Exchange-correlation functional for the present dataset will be:
  LDA: new Teter (4/93) with spin-polarized option - ixc=1
 Citation for XC functional:
  S. Goedecker, M. Teter, J. Huetter, PRB 54, 1703 (1996)

 Real(R)+Recip(G) space primitive vectors, cartesian coordinates (Bohr,Bohr^-1):
 R(1)=  4.7163728  0.0000000  0.0000000  G(1)=  0.2120273  0.1224140  0.0000000
 R(2)= -2.3581864  4.0844987  0.0000000  G(2)=  0.0000000  0.2448281  0.0000000
 R(3)=  0.0000000  0.0000000 12.1758362  G(3)=  0.0000000  0.0000000  0.0821299
 Unit cell volume ucvol=  2.3455553E+02 bohr^3
 Angles (23,13,12)=  9.00000000E+01  9.00000000E+01  1.20000000E+02 degrees

 getcut: wavevector=  0.0000  0.0000  0.0000  ngfft=  30  30  72
         ecut(hartree)=     40.000   => boxcut(ratio)=   2.07701

--- Pseudopotential description ------------------------------------------------
- pspini: atom type   1  psp file is psp/5b.pspnc
- pspatm: opening atomic psp file    psp/5b.pspnc
-  Troullier-Martins psp for element  B         Thu Oct 27 17:29:24 EDT 1994
-  5.00000   3.00000    940714                znucl, zion, pspdat
    1    1    1    1      2001   0.00000      pspcod,pspxc,lmax,lloc,mmax,r2well
    0   8.313  21.401    1   1.5924135        l,e99.0,e99.9,nproj,rcpsp
   0.00000000   0.00000000   0.00000000   0.00000000     rms, ekb1, ekb2, epsatm
    1  11.531  17.234    0   1.5924135        l,e99.0,e99.9,nproj,rcpsp
   0.00000000   0.00000000   0.00000000   0.00000000     rms, ekb1, ekb2, epsatm
    1.10004537463277    0.35216853368804    0.40909985967175   rchrg,fchrg,qchrg
 pspatm: epsatm=    0.59609267
         --- l  ekb(1:nproj) -->
             0    3.906219
 pspatm: atomic psp has been read  and splines computed

- pspini: atom type   2  psp file is psp/7n.pspnc
- pspatm: opening atomic psp file    psp/7n.pspnc
-  Troullier-Martins psp for element  N         Thu Oct 27 17:29:45 EDT 1994
-  7.00000   5.00000    940714                znucl, zion, pspdat
    1    1    1    1      2001   0.00000      pspcod,pspxc,lmax,lloc,mmax,r2well
    0   9.676  16.205    1   1.4975844        l,e99.0,e99.9,nproj,rcpsp
   0.00000000   0.00000000   0.00000000   0.00000000     rms, ekb1, ekb2, epsatm
    1  17.792  24.348    0   1.4975844        l,e99.0,e99.9,nproj,rcpsp
   0.00000000   0.00000000   0.00000000   0.00000000     rms, ekb1, ekb2, epsatm
    0.67622446232424    2.19275283188720    0.59171052714445   rchrg,fchrg,qchrg
 pspatm: epsatm=    1.31070843
         --- l  ekb(1:nproj) -->
             0    5.141679
 pspatm: atomic psp has been read  and splines computed

   6.10176352E+01                                ecore*ucvol(ha*bohr**3)
--------------------------------------------------------------------------------

P newkpt: treating     10 bands with npw=    1416 for ikpt=   1 by node    0
P newkpt: treating     10 bands with npw=    2820 for ikpt=   2 by node    0
P newkpt: treating     10 bands with npw=    1417 for ikpt=   3 by node    0
P newkpt: treating     10 bands with npw=    2825 for ikpt=   4 by node    0
P newkpt: treating     10 bands with npw=    2849 for ikpt=   5 by node    0
P newkpt: treating     10 bands with npw=    2830 for ikpt=   6 by node    0
P newkpt: treating     10 bands with npw=    2840 for ikpt=   7 by node    0
P newkpt: treating     10 bands with npw=    2840 for ikpt=   8 by node    0
P newkpt: treating     10 bands with npw=    1427 for ikpt=   9 by node    0
P newkpt: treating     10 bands with npw=    2820 for ikpt=  10 by node    0
P newkpt: treating     10 bands with npw=    1420 for ikpt=  11 by node    0
P newkpt: treating     10 bands with npw=    2828 for ikpt=  12 by node    0

_setup2: Arith. and geom. avg. npw (full set) are    2831.922    2831.909

================================================================================

     iter   Etot(hartree)      deltaE(h)  residm     vres2
 ETOT  1  -26.950299162252    -2.695E+01 1.332E-01 1.105E+03
 ETOT  2  -27.010223716025    -5.992E-02 3.380E-03 3.686E+02
 ETOT  3  -27.113512549835    -1.033E-01 9.051E-02 4.940E+01
 ETOT  4  -27.126769497462    -1.326E-02 5.329E-03 2.637E-01
 ETOT  5  -27.126806885261    -3.739E-05 2.496E-03 4.587E-02
 ETOT  6  -27.126815673232    -8.788E-06 2.017E-03 2.802E-03
 ETOT  7  -27.126816077798    -4.046E-07 8.241E-04 3.947E-05
 ETOT  8  -27.126816080302    -2.504E-09 4.052E-04 4.849E-06
 ETOT  9  -27.126816080524    -2.216E-10 1.292E-04 1.340E-08
 ETOT 10  -27.126816080526    -2.341E-12 5.747E-05 3.561E-10
 ETOT 11  -27.126816080526     1.954E-13 1.787E-05 3.063E-13

 At SCF step   11, etot is converged : 
  for the second time, diff in etot=  1.954E-13 < toldfe=  1.000E-10

 Cartesian components of stress tensor (hartree/bohr^3)
  sigma(1 1)=  8.25013670E-06  sigma(3 2)=  0.00000000E+00
  sigma(2 2)=  8.25013671E-06  sigma(3 1)=  0.00000000E+00
  sigma(3 3)= -6.93369564E-06  sigma(2 1)=  0.00000000E+00

================================================================================

 ----iterations are completed or convergence reached----

 Mean square residual over all n,k,spin=   2.7450E-07; max=  1.7865E-05
   0.0000  0.0000  0.0000    1  1.02627E-08 kpt; spin; max resid(k); each band:
  2.77E-15 2.96E-15 1.68E-15 2.12E-15 3.58E-15 3.58E-15 3.58E-15 3.58E-15
  2.12E-16 1.03E-08
   0.2500  0.0000  0.0000    1  1.50643E-05 kpt; spin; max resid(k); each band:
  2.85E-15 3.01E-15 3.21E-15 3.18E-15 1.76E-15 3.43E-15 3.43E-15 1.95E-15
  4.03E-14 1.51E-05
   0.5000  0.0000  0.0000    1  3.35329E-15 kpt; spin; max resid(k); each band:
  3.05E-15 3.05E-15 2.83E-15 2.83E-15 3.35E-15 3.35E-15 2.08E-15 2.21E-15
  1.29E-15 1.46E-15
   0.2500  0.2500  0.0000    1  3.08415E-15 kpt; spin; max resid(k); each band:
  3.02E-15 3.03E-15 3.00E-15 2.99E-15 3.08E-15 3.08E-15 1.99E-15 2.20E-15
  1.50E-15 1.73E-15
   0.0000  0.0000  0.2500    1  9.98374E-12 kpt; spin; max resid(k); each band:
  2.81E-15 2.93E-15 1.73E-15 2.03E-15 3.58E-15 3.58E-15 3.58E-15 3.58E-15
  3.94E-16 9.98E-12
   0.2500  0.0000  0.2500    1  1.78655E-05 kpt; spin; max resid(k); each band:
  2.86E-15 2.98E-15 3.11E-15 3.17E-15 1.91E-15 3.43E-15 1.94E-15 3.43E-15
  6.60E-13 1.79E-05
   0.5000  0.0000  0.2500    1  3.35312E-15 kpt; spin; max resid(k); each band:
  3.06E-15 3.06E-15 2.83E-15 2.83E-15 3.35E-15 3.35E-15 2.05E-15 2.15E-15
  1.25E-15 1.37E-15
   0.2500  0.2500  0.2500    1  3.08465E-15 kpt; spin; max resid(k); each band:
  3.03E-15 3.03E-15 3.00E-15 2.99E-15 3.08E-15 3.08E-15 1.97E-15 2.12E-15
  1.51E-15 1.67E-15
   0.0000  0.0000  0.5000    1  2.40475E-15 kpt; spin; max resid(k); each band:
  1.04E-16 1.28E-16 3.57E-16 3.35E-16 1.40E-18 1.44E-18 3.30E-18 3.30E-18
  2.40E-15 1.32E-15
   0.2500  0.0000  0.5000    1  2.58347E-13 kpt; spin; max resid(k); each band:
  5.90E-17 7.44E-17 2.25E-16 2.70E-16 5.84E-16 3.68E-16 8.06E-19 4.75E-18
  2.58E-13 1.93E-13
   0.5000  0.0000  0.5000    1  7.54033E-17 kpt; spin; max resid(k); each band:
  1.24E-17 1.96E-17 2.39E-17 3.32E-17 6.97E-19 4.93E-18 7.54E-17 3.53E-17
  7.11E-17 2.75E-17
   0.2500  0.2500  0.5000    1  1.50928E-16 kpt; spin; max resid(k); each band:
  1.87E-17 2.47E-17 1.93E-17 1.98E-17 2.15E-17 2.72E-17 1.51E-16 4.75E-17
  1.17E-16 3.96E-17
 reduced coordinates (array xred) for    4 atoms
       0.666666666663      0.333333333325      0.000000000000
      -0.666666666671     -0.333333333341      0.000000000000
      -0.666666666671     -0.333333333341      0.500000000000
       0.666666666663      0.333333333325      0.500000000000
 rms dE/dt=  7.6160E-28; max dE/dt=  2.1541E-27; dE/dt below (all hartree)
    1       0.000000000000      0.000000000000      0.000000000000
    2       0.000000000000      0.000000000000      0.000000000000
    3       0.000000000000      0.000000000000      0.000000000000
    4       0.000000000000      0.000000000000      0.000000000000

 cartesian coordinates (angstrom) at end:
    1      1.24789849648690     0.72047453284724     0.00000000000000
    2     -1.24789849648690    -0.72047453288146     0.00000000000000
    3     -1.24789849648690    -0.72047453288146     3.22158750628254
    4      1.24789849648690     0.72047453284724     3.22158750628254

 cartesian forces (hartree/bohr) at end:
    1      0.00000000000000     0.00000000000000    -0.00000000000000
    2     -0.00000000000000    -0.00000000000000    -0.00000000000000
    3      0.00000000000000     0.00000000000000    -0.00000000000000
    4      0.00000000000000     0.00000000000000    -0.00000000000000
 frms,max,avg= 1.0765265E-28 2.2836577E-28   0.000E+00  0.000E+00  0.000E+00 h/b

 cartesian forces (eV/Angstrom) at end:
    1      0.00000000000000     0.00000000000000    -0.00000000000000
    2     -0.00000000000000    -0.00000000000000    -0.00000000000000
    3      0.00000000000000     0.00000000000000    -0.00000000000000
    4      0.00000000000000     0.00000000000000    -0.00000000000000
 frms,max,avg= 5.5357216E-27 1.1743039E-26   0.000E+00  0.000E+00  0.000E+00 e/A
 length scales=  4.716372800000  4.716372800000 12.175836200000 bohr
              =  2.495796992974  2.495796992974  6.443175012565 angstroms
 prteigrs : about to open file io_dir/hbn_scf_out_EIG
 Fermi (or HOMO) energy (hartree) =   0.14869   Average Vxc (hartree)=  -0.39795
 Eigenvalues (hartree) for nkpt=  12  k points:
 kpt#   1, nband= 10, wtk=  0.01563, kpt=  0.0000  0.0000  0.0000 (reduced coord)
  -0.48613  -0.47156  -0.07681   0.01629   0.11367   0.11367   0.11549   0.11549
   0.35338   0.54636
 kpt#   2, nband= 10, wtk=  0.09375, kpt=  0.2500  0.0000  0.0000 (reduced coord)
  -0.44182  -0.42933  -0.02341  -0.02021  -0.01564   0.05304   0.05580   0.06925
   0.42004   0.48454
 kpt#   3, nband= 10, wtk=  0.04688, kpt=  0.5000  0.0000  0.0000 (reduced coord)
  -0.36363  -0.36024  -0.16400  -0.16113   0.00903   0.01219   0.10386   0.14869
   0.31183   0.37191
 kpt#   4, nband= 10, wtk=  0.09375, kpt=  0.2500  0.2500  0.0000 (reduced coord)
  -0.37034  -0.36318  -0.11641  -0.11469  -0.05272  -0.05062   0.09067   0.14842
   0.36209   0.38891
 kpt#   5, nband= 10, wtk=  0.03125, kpt=  0.0000  0.0000  0.2500 (reduced coord)
  -0.48414  -0.47385  -0.06560  -0.00093   0.11393   0.11393   0.11522   0.11522
   0.38211   0.51594
 kpt#   6, nband= 10, wtk=  0.18750, kpt=  0.2500  0.0000  0.2500 (reduced coord)
  -0.44010  -0.43128  -0.02408  -0.02105  -0.00398   0.05344   0.05447   0.05539
   0.43608   0.48188
 kpt#   7, nband= 10, wtk=  0.09375, kpt=  0.5000  0.0000  0.2500 (reduced coord)
  -0.36312  -0.36072  -0.16379  -0.16176   0.00949   0.01173   0.11084   0.14301
   0.31501   0.35734
 kpt#   8, nband= 10, wtk=  0.18750, kpt=  0.2500  0.2500  0.2500 (reduced coord)
  -0.36932  -0.36426  -0.11622  -0.11503  -0.05258  -0.05110   0.09892   0.13985
   0.36160   0.38171
 kpt#   9, nband= 10, wtk=  0.01563, kpt=  0.0000  0.0000  0.5000 (reduced coord)
  -0.47915  -0.47915  -0.03602  -0.03602   0.11457   0.11457   0.11457   0.11457
   0.44838   0.44838
 kpt#  10, nband= 10, wtk=  0.09375, kpt=  0.2500  0.0000  0.5000 (reduced coord)
  -0.43580  -0.43580  -0.02286  -0.02286   0.02338   0.02338   0.05441   0.05441
   0.46335   0.46335
 kpt#  11, nband= 10, wtk=  0.04688, kpt=  0.5000  0.0000  0.5000 (reduced coord)
  -0.36191  -0.36191  -0.16298  -0.16298   0.01060   0.01060   0.12748   0.12748
   0.33097   0.33097
 kpt#  12, nband= 10, wtk=  0.09375, kpt=  0.2500  0.2500  0.5000 (reduced coord)
  -0.36682  -0.36682  -0.11570  -0.11570  -0.05200  -0.05200   0.11918   0.11918
   0.36818   0.36818
 Total charge density [el/Bohr^3]
,     Maximum=    5.8668E-01  at reduced coord.    0.4000    0.8000    0.0000
,Next maximum=    5.8668E-01  at reduced coord.    0.4000    0.6000    0.0000
,     Minimum=    2.8380E-03  at reduced coord.    0.0000    0.0000    0.2500
,Next minimum=    2.8380E-03  at reduced coord.    0.0000    0.0000    0.7500
,  Integrated=    1.6000E+01

--------------------------------------------------------------------------------
 Components of total free energy (in Hartree) :

    Kinetic energy  =  1.85944426776080E+01
    Hartree energy  =  7.73932669782044E+00
    XC energy       = -8.96755983867050E+00
    Ewald energy    = -1.90009856095709E+01
    PspCore energy  =  2.60141530814975E-01
    Loc. psp. energy= -2.88795941228573E+01
    NL   psp  energy=  3.12741258432945E+00
    >>>>>>>>> Etotal= -2.71268160805258E+01

 Other information on the energy :
    Total energy(eV)= -7.38158205266808E+02 ; Band energy (Ha)=  -1.5512873572E+00
--------------------------------------------------------------------------------

 Cartesian components of stress tensor (hartree/bohr^3)
  sigma(1 1)=  8.25013670E-06  sigma(3 2)=  0.00000000E+00
  sigma(2 2)=  8.25013671E-06  sigma(3 1)=  0.00000000E+00
  sigma(3 3)= -6.93369564E-06  sigma(2 1)=  0.00000000E+00

-Cartesian components of stress tensor (GPa)         [Pressure= -9.3819E-02 GPa]
- sigma(1 1)=  2.42727361E-01  sigma(3 2)=  0.00000000E+00
- sigma(2 2)=  2.42727361E-01  sigma(3 1)=  0.00000000E+00
- sigma(3 3)= -2.03996334E-01  sigma(2 1)=  0.00000000E+00

== END DATASET(S) ==============================================================
================================================================================
  
 -outvars: echo values of variables after computation  --------
            acell      4.7163728000E+00  4.7163728000E+00  1.2175836200E+01 Bohr
              amu      1.08110000E+01  1.40067400E+01
           diemac      4.50000000E+00
             ecut      4.00000000E+01 Hartree
           etotal     -2.7126816081E+01
            fcart      0.0000000000E+00  0.0000000000E+00 -0.0000000000E+00
                      -2.2836576643E-28 -1.3184703673E-28 -0.0000000000E+00
                       0.0000000000E+00  0.0000000000E+00 -0.0000000000E+00
                       2.2836576643E-28  1.3184703673E-28 -0.0000000000E+00
           istwfk        2    0    3    0    0    0    0    0    4    0
                         5    0
              kpt      0.00000000E+00  0.00000000E+00  0.00000000E+00
                       2.50000000E-01  0.00000000E+00  0.00000000E+00
                       5.00000000E-01  0.00000000E+00  0.00000000E+00
                       2.50000000E-01  2.50000000E-01  0.00000000E+00
                       0.00000000E+00  0.00000000E+00  2.50000000E-01
                       2.50000000E-01  0.00000000E+00  2.50000000E-01
                       5.00000000E-01  0.00000000E+00  2.50000000E-01
                       2.50000000E-01  2.50000000E-01  2.50000000E-01
                       0.00000000E+00  0.00000000E+00  5.00000000E-01
                       2.50000000E-01  0.00000000E+00  5.00000000E-01
                       5.00000000E-01  0.00000000E+00  5.00000000E-01
                       2.50000000E-01  2.50000000E-01  5.00000000E-01
         kptrlatt        4    0    0      0    4    0      0    0    4
          kptrlen      1.88654912E+01
P           mkmem          12
            natom           4
            nband          10
            ngfft          30      30      72
             nkpt          12
            nstep         100
             nsym          12
           ntypat           2
              occ      2.000000  2.000000  2.000000  2.000000  2.000000  2.000000
                       2.000000  2.000000  0.000000  0.000000
            rprim      1.0000000000E+00  0.0000000000E+00  0.0000000000E+00
                      -5.0000000000E-01  8.6602540378E-01  0.0000000000E+00
                       0.0000000000E+00  0.0000000000E+00  1.0000000000E+00
          spgroup         194
           strten      8.2501366974E-06  8.2501367088E-06 -6.9336956411E-06
                       0.0000000000E+00  0.0000000000E+00  0.0000000000E+00
        symmorphi           0
           symrel      1  0  0   0  1  0   0  0  1       0 -1  0  -1  0  0   0  0 -1
                      -1 -1  0   1  0  0   0  0 -1      -1  0  0   1  1  0   0  0  1
                       0  1  0  -1 -1  0   0  0  1       1  1  0   0 -1  0   0  0 -1
                       1  0  0   0  1  0   0  0 -1       0 -1  0  -1  0  0   0  0  1
                      -1 -1  0   1  0  0   0  0  1      -1  0  0   1  1  0   0  0 -1
                       0  1  0  -1 -1  0   0  0 -1       1  1  0   0 -1  0   0  0  1
            tnons      0.0000000  0.0000000  0.0000000    -0.0000000 -0.0000000  0.0000000
                       0.0000000 -0.0000000  0.0000000     0.0000000  0.0000000  0.0000000
                      -0.0000000 -0.0000000  0.0000000     0.0000000 -0.0000000  0.0000000
                       0.0000000  0.0000000  0.0000000    -0.0000000 -0.0000000  0.0000000
                       0.0000000 -0.0000000  0.0000000     0.0000000  0.0000000  0.0000000
                      -0.0000000 -0.0000000  0.0000000     0.0000000 -0.0000000  0.0000000
           toldfe      1.00000000E-10 Hartree
            typat      1  2  1  2
              wtk        0.01563    0.09375    0.04688    0.09375    0.03125    0.18750
                         0.09375    0.18750    0.01563    0.09375    0.04688    0.09375
           xangst      1.2478984965E+00  7.2047453285E-01  0.0000000000E+00
                      -1.2478984965E+00 -7.2047453288E-01  0.0000000000E+00
                      -1.2478984965E+00 -7.2047453288E-01  3.2215875063E+00
                       1.2478984965E+00  7.2047453285E-01  3.2215875063E+00
            xcart      2.3581864000E+00  1.3614995528E+00  0.0000000000E+00
                      -2.3581864000E+00 -1.3614995529E+00  0.0000000000E+00
                      -2.3581864000E+00 -1.3614995529E+00  6.0879181000E+00
                       2.3581864000E+00  1.3614995528E+00  6.0879181000E+00
             xred      6.6666666666E-01  3.3333333333E-01  0.0000000000E+00
                      -6.6666666667E-01 -3.3333333334E-01  0.0000000000E+00
                      -6.6666666667E-01 -3.3333333334E-01  5.0000000000E-01
                       6.6666666666E-01  3.3333333333E-01  5.0000000000E-01
            znucl        5.00000    7.00000

================================================================================


- Timing analysis has been suppressed with timopt=0



================================================================================

 Suggested references for the acknowledgment of ABINIT usage.

 The users of ABINIT have little formal obligations with respect to the ABINIT group
 (those specified in the GNU General Public License, http://www.gnu.org/copyleft/gpl.txt).
 However, it is common practice in the scientific literature,
 to acknowledge the efforts of people that have made the research possible.
 In this spirit, please find below suggested citations of work written by ABINIT developers,
 corresponding to implementations inside of ABINIT that you have used in the present run.
 Note also that it will be of great value to readers of publications presenting these results,
 to read papers enabling them to understand the theoretical formalism and details
 of the ABINIT implementation.
 For information on why they are suggested, see also http://www.abinit.org/about/?text=acknowledgments.

 [1] ABINIT : First-principles approach of materials and nanosystem properties.
 X. Gonze, B. Amadon, P.-M. Anglade, J.-M. Beuken, F. Bottin, P. Boulanger, F. Bruneval,
 D. Caliste, R. Caracas, M. Cote, T. Deutsch, L. Genovese, Ph. Ghosez, M. Giantomassi
 S. Goedecker, D.R. Hamann, P. Hermet, F. Jollet, G. Jomard, S. Leroux, M. Mancini, S. Mazevet,
 M.J.T. Oliveira, G. Onida, Y. Pouillon, T. Rangel, G.-M. Rignanese, D. Sangalli, R. Shaltaf,
 M. Torrent, M.J. Verstraete, G. Zerah, J.W. Zwanziger
 Computer Phys. Comm. 180, 2582-2615 (2009).
 Comment : the third generic paper describing the ABINIT project.
 Note that a version of this paper, that is not formatted for Computer Phys. Comm. 
 is available at http://www.abinit.org/about/ABINIT_CPC_v10.pdf .
 The licence allows the authors to put it on the Web.

 [2] A brief introduction to the ABINIT software package.
 X. Gonze, G.-M. Rignanese, M. Verstraete, J.-M. Beuken, Y. Pouillon, R. Caracas, F. Jollet,
 M. Torrent, G. Zerah, M. Mikami, Ph. Ghosez, M. Veithen, J.-Y. Raty, V. Olevano, F. Bruneval,
 L. Reining, R. Godby, G. Onida, D.R. Hamann, and D.C. Allan.
 Z. Kristallogr. 220, 558-562 (2005).
 Comment : the second generic paper describing the ABINIT project. Note that this paper
 should be cited especially if you are using the GW part of ABINIT, as several authors
 of this part are not in the list of authors of the first or third paper.
 The .pdf of the latter paper is available at http://www.abinit.org/about/zfk_0505-06_558-562.pdf.
 Note that it should not redistributed (Copyright by Oldenburg Wissenshaftverlag,
 the licence allows the authors to put it on the Web).


 And optionally :

 [3] First-principles computation of material properties : the ABINIT software project. 
 X. Gonze, J.-M. Beuken, R. Caracas, F. Detraux, M. Fuchs, G.-M. Rignanese, L. Sindic,
 M. Verstraete, G. Zerah, F. Jollet, M. Torrent, A. Roy, M. Mikami, Ph. Ghosez, J.-Y. Raty, D.C. Allan.
 Computational Materials Science 25, 478-492 (2002). http://dx.doi.org/10.1016/S0927-0256(02)00325-7
 Comment : the original paper describing the ABINIT project.

 [4] Fast radix 2, 3, 4 and 5 kernels for Fast Fourier Transformations
 on computers with overlapping multiply-add instructions.
 S. Goedecker, SIAM J. on Scientific Computing 18, 1605 (1997).
-
- Proc.   0 individual time (sec): cpu=         15.2  wall=         15.8

================================================================================

 Calculation completed.
.Delivered    3 WARNINGs and   2 COMMENTs to log file.
+Overall time at end (sec) : cpu=         15.2  wall=         15.8
