  ABINIT 8.10.3
  
  Give name for formatted input file: 
input/01_scf.in
  Give name for formatted output file:
output/hbn_scf.out
  Give root name for generic input files:
io_dir/hbn_scf_in
  Give root name for generic output files:
io_dir/hbn_scf_out
  Give root name for generic temporary files:
io_dir/hbn_scf_tmp

.Version 8.10.3 of ABINIT 
.(sequential version, prepared for a x86_64_linux_gnu8.3 computer) 

.Copyright (C) 1998-2018 ABINIT group . 
 ABINIT comes with ABSOLUTELY NO WARRANTY.
 It is free software, and you are welcome to redistribute it
 under certain conditions (GNU General Public License,
 see ~abinit/COPYING or http://www.gnu.org/copyleft/gpl.txt).

 ABINIT is a project of the Universite Catholique de Louvain,
 Corning Inc. and other collaborators, see ~abinit/doc/developers/contributors.txt .
 Please read https://docs.abinit.org/theory/acknowledgments for suggested
 acknowledgments of the ABINIT effort.
 For more information, see https://www.abinit.org .

.Starting date : Tue 13 Oct 2020.
- ( at 10h29 )
  

 ++++++++++++++++++++++++++++++++++++++++++++++++++++++++++++++++++++++++++++++

 === Build Information === 
  Version       : 8.10.3
  Build target  : x86_64_linux_gnu8.3
  Build date    : 20201005

 === Compiler Suite === 
  C compiler       : gnu8.3
  C++ compiler     : gnu8.3
  Fortran compiler : gnu8.3
  CFLAGS           :  -g -O2 -mtune=native -march=native
  CXXFLAGS         :  -g -O2 -mtune=native -march=native
  FCFLAGS          :  -g -ffree-line-length-none
  FC_LDFLAGS       : 

 === Optimizations === 
  Debug level        : basic
  Optimization level : standard
  Architecture       : unknown_unknown

 === Multicore === 
  Parallel build : no
  Parallel I/O   : no
  openMP support : no
  GPU support    : no

 === Connectors / Fallbacks === 
  Connectors on : yes
  Fallbacks on  : yes
  DFT flavor    : none
  FFT flavor    : none
  LINALG flavor : netlib-fallback
  MATH flavor   : none
  TIMER flavor  : abinit
  TRIO flavor   : netcdf-fallback

 === Experimental features === 
  Bindings            : @enable_bindings@
  Exports             : no
  GW double-precision : no

 ++++++++++++++++++++++++++++++++++++++++++++++++++++++++++++++++++++++++++++++


 ++++++++++++++++++++++++++++++++++++++++++++++++++++++++++++++++++++++++++++++
 Default optimizations:
   -O2 -mtune=native -march=native


 Optimizations for 43_ptgroups:
   -O0


 ++++++++++++++++++++++++++++++++++++++++++++++++++++++++++++++++++++++++++++++


 ++++++++++++++++++++++++++++++++++++++++++++++++++++++++++++++++++++++++++++++
 CPP options activated during the build:

                    CC_GNU                   CXX_GNU                    FC_GNU
 
 HAVE_FC_ALLOCATABLE_DT...             HAVE_FC_ASYNC         HAVE_FC_BACKTRACE
 
  HAVE_FC_COMMAND_ARGUMENT      HAVE_FC_COMMAND_LINE        HAVE_FC_CONTIGUOUS
 
           HAVE_FC_CPUTIME              HAVE_FC_EXIT             HAVE_FC_FLUSH
 
             HAVE_FC_GAMMA            HAVE_FC_GETENV   HAVE_FC_IEEE_EXCEPTIONS
 
          HAVE_FC_INT_QUAD             HAVE_FC_IOMSG     HAVE_FC_ISO_C_BINDING
 
  HAVE_FC_ISO_FORTRAN_2008        HAVE_FC_LONG_LINES        HAVE_FC_MOVE_ALLOC
 
           HAVE_FC_PRIVATE         HAVE_FC_PROTECTED         HAVE_FC_STREAM_IO
 
            HAVE_FC_SYSTEM          HAVE_FORTRAN2003        HAVE_LIBPAW_ABINIT
 
      HAVE_LIBTETRA_ABINIT               HAVE_NETCDF             HAVE_OS_LINUX
 
         HAVE_TIMER_ABINIT              USE_MACROAVE                            
 ++++++++++++++++++++++++++++++++++++++++++++++++++++++++++++++++++++++++++++++

- input  file    -> input/01_scf.in
- output file    -> output/hbn_scf.out
- root for input  files -> io_dir/hbn_scf_in
- root for output files -> io_dir/hbn_scf_out

-instrng: 44 lines of input have been read from file input/01_scf.in


 Please give name of formatted atomic psp file
 iofn2 : for atom type 1, psp file is ../psp/5b.pspnc

 Please give name of formatted atomic psp file
 iofn2 : for atom type 2, psp file is ../psp/7n.pspnc
  read the values zionpsp=  3.0 , pspcod=   1 , lmax=   1
  read the values zionpsp=  5.0 , pspcod=   1 , lmax=   1

 inpspheads: deduce mpsang = 2, n1xccc = 2501.
 invars1 : treat image number: 1

 symlatt : the Bravais lattice is hP (primitive hexagonal)
  xcart  is defined in input file
 ingeo: takes atomic coordinates from input array xcart

 symlatt : the Bravais lattice is hP (primitive hexagonal)

 symlatt : the Bravais lattice is hP (primitive hexagonal)
 symspgr : spgroup= 194  P6_3/m m c   (=D6h^4)
 symspgr : optical characteristics = uniaxial
 Optical axis (in reduced coordinates, real space ) :   0   0   1
 ingeo: angdeg(1:3)=   90.00000000   90.00000000  120.00000000
 chkneu : initialized the occupation numbers for occopt=    1, spin-unpolarized or antiferromagnetic case :
  2.00  2.00  2.00  2.00  2.00  2.00  2.00  2.00  0.00  0.00
mpi_setup: mkmem  undefined in the input file.Use default mkmem  = nkpt
 mpi_setup: With nkpt_me=12 and mkmem  = 12, ground state wf handled in core.
mpi_setup: mkqmem undefined in the input file.Use default mkqmem = nkpt
 mpi_setup: With nkpt_me=12 and mkqmem = 12, ground state wf handled in core.
mpi_setup: mk1mem undefined in the input file.Use default mk1mem = nkpt
 mpi_setup: With nkpt_me=12 and mk1mem = 12, ground state wf handled in core.
 For input ecut=  4.000000E+01 best grid ngfft=      30      30      72
       max ecut=  4.313970E+01

 ==== FFT mesh ====
  FFT mesh divisions ........................    30   30   72
  Augmented FFT divisions ...................    31   31   72
  FFT algorithm .............................   112
  FFT cache size ............................    16
 getmpw: optimal value of mpw= 2849

 Symmetries : space group P6_3/m m c (#194); Bravais hP (primitive hexag.)

 getdim_nloc : deduce lmnmax  =   1, lnmax  =   1,
                      lmnmaxso=   1, lnmaxso=   1.
memory : analysis of memory needs
================================================================================
 Values of the parameters that define the memory need of the present run
     intxc =       0    ionmov =       0      iscf =       7    lmnmax =       1
     lnmax =       1     mgfft =      72  mpssoang =       2    mqgrid =    3467
     natom =       4  nloc_mem =       1    nspden =       1   nspinor =       1
    nsppol =       1      nsym =      12    n1xccc =    2501    ntypat =       2
    occopt =       1   xclevel =       1
-    mband =          10        mffmem =           1         mkmem =          12
       mpw =        2849          nfft =       64800          nkpt =          12
================================================================================
P This job should need less than                      24.870 Mbytes of memory.
  Rough estimation (10% accuracy) of disk space for files :
_ WF disk file :      5.219 Mbytes ; DEN or POT disk file :      0.496 Mbytes.
================================================================================

 Biggest array : f_fftgr(disk), with      7.9122 MBytes.
 memana : allocated an array of      7.912 Mbytes, for testing purposes.
 memana: allocated      24.870Mbytes, for testing purposes. 
 The job will continue.
--------------------------------------------------------------------------------
------------- Echo of variables that govern the present computation ------------
--------------------------------------------------------------------------------
-
- outvars: echo of selected default values                                      
-   iomode0 =  0 , fftalg0 =112 , wfoptalg0 =  0
-
- outvars: echo of global parameters not present in the input file              
-  max_nthreads =    0
-
 -outvars: echo values of preprocessed input variables --------
 
 These variables are accessible in NetCDF format (io_dir/hbn_scf_out_OUT.nc)

-          iomode           3
            acell      4.7163728000E+00  4.7163728000E+00  1.2175836200E+01 Bohr
              amu      1.08110000E+01  1.40067400E+01
           diemac      4.50000000E+00
             ecut      4.00000000E+01 Hartree
-          fftalg         112
           istwfk        2    0    3    0    0    0    0    0    4    0
                         5    0
              kpt      0.00000000E+00  0.00000000E+00  0.00000000E+00
                       2.50000000E-01  0.00000000E+00  0.00000000E+00
                       5.00000000E-01  0.00000000E+00  0.00000000E+00
                       2.50000000E-01  2.50000000E-01  0.00000000E+00
                       0.00000000E+00  0.00000000E+00  2.50000000E-01
                       2.50000000E-01  0.00000000E+00  2.50000000E-01
                       5.00000000E-01  0.00000000E+00  2.50000000E-01
                       2.50000000E-01  2.50000000E-01  2.50000000E-01
                       0.00000000E+00  0.00000000E+00  5.00000000E-01
                       2.50000000E-01  0.00000000E+00  5.00000000E-01
                       5.00000000E-01  0.00000000E+00  5.00000000E-01
                       2.50000000E-01  2.50000000E-01  5.00000000E-01
         kptrlatt        4    0    0      0    4    0      0    0    4
          kptrlen      1.88654912E+01
P           mkmem          12
            natom           4
            nband          10
            ngfft          30      30      72
             nkpt          12
            nstep         100
             nsym          12
           ntypat           2
              occ      2.000000  2.000000  2.000000  2.000000  2.000000  2.000000
                       2.000000  2.000000  0.000000  0.000000
            rprim      1.0000000000E+00  0.0000000000E+00  0.0000000000E+00
                      -5.0000000000E-01  8.6602540378E-01  0.0000000000E+00
                       0.0000000000E+00  0.0000000000E+00  1.0000000000E+00
          spgroup         194
        symmorphi           0
           symrel      1  0  0   0  1  0   0  0  1       0 -1  0  -1  0  0   0  0 -1
                      -1 -1  0   1  0  0   0  0 -1      -1  0  0   1  1  0   0  0  1
                       0  1  0  -1 -1  0   0  0  1       1  1  0   0 -1  0   0  0 -1
                       1  0  0   0  1  0   0  0 -1       0 -1  0  -1  0  0   0  0  1
                      -1 -1  0   1  0  0   0  0  1      -1  0  0   1  1  0   0  0 -1
                       0  1  0  -1 -1  0   0  0 -1       1  1  0   0 -1  0   0  0  1
            tnons      0.0000000  0.0000000  0.0000000    -0.0000000 -0.0000000  0.0000000
                       0.0000000 -0.0000000  0.0000000     0.0000000  0.0000000  0.0000000
                      -0.0000000 -0.0000000  0.0000000     0.0000000 -0.0000000  0.0000000
                       0.0000000  0.0000000  0.0000000    -0.0000000 -0.0000000  0.0000000
                       0.0000000 -0.0000000  0.0000000     0.0000000  0.0000000  0.0000000
                      -0.0000000 -0.0000000  0.0000000     0.0000000 -0.0000000  0.0000000
           toldfe      1.00000000E-10 Hartree
            typat      1  2  1  2
              wtk        0.01563    0.09375    0.04688    0.09375    0.03125    0.18750
                         0.09375    0.18750    0.01563    0.09375    0.04688    0.09375
           xangst      1.2478984965E+00  7.2047453285E-01  0.0000000000E+00
                      -1.2478984965E+00 -7.2047453285E-01  0.0000000000E+00
                      -1.2478984965E+00 -7.2047453285E-01  3.2215875063E+00
                       1.2478984965E+00  7.2047453285E-01  3.2215875063E+00
            xcart      2.3581864000E+00  1.3614995528E+00  0.0000000000E+00
                      -2.3581864000E+00 -1.3614995528E+00  0.0000000000E+00
                      -2.3581864000E+00 -1.3614995528E+00  6.0879181000E+00
                       2.3581864000E+00  1.3614995528E+00  6.0879181000E+00
             xred      6.6666666666E-01  3.3333333333E-01  0.0000000000E+00
                      -6.6666666666E-01 -3.3333333333E-01  0.0000000000E+00
                      -6.6666666666E-01 -3.3333333333E-01  5.0000000000E-01
                       6.6666666666E-01  3.3333333333E-01  5.0000000000E-01
            znucl        5.00000    7.00000

================================================================================

 chkinp: Checking input parameters for consistency.
 DATA TYPE INFORMATION: 
 REAL:      Data type name: REAL(DP) 
            Kind value:      8
            Precision:      15
            Smallest nonnegligible quantity relative to 1:  0.22204460E-15
            Smallest positive number:                       0.22250739-307
            Largest representable number:                   0.17976931+309
 INTEGER:   Data type name: INTEGER(default) 
            Kind value: 4
            Bit size:   32
            Largest representable number: 2147483647
 LOGICAL:   Data type name: LOGICAL 
            Kind value: 4
 CHARACTER: Data type name: CHARACTER             Kind value: 1

  ==== OpenMP parallelism is OFF ====
 
  MPI-IO support is OFF

================================================================================
== DATASET  1 ==================================================================
-   nproc =    1


--- !COMMENT
src_file: m_xgScalapack.F90
src_line: 251
message: |
    xgScalapack in auto mode
...


 getdim_nloc : deduce lmnmax  =   1, lnmax  =   1,
                      lmnmaxso=   1, lnmaxso=   1.
 Exchange-correlation functional for the present dataset will be:
  LDA: new Teter (4/93) with spin-polarized option - ixc=1
 Citation for XC functional:
  S. Goedecker, M. Teter, J. Huetter, PRB 54, 1703 (1996)

 Unit cell volume ucvol=  2.3455553E+02 bohr^3
 Angles (23,13,12)=  9.00000000E+01  9.00000000E+01  1.20000000E+02 degrees

 getcut: wavevector=  0.0000  0.0000  0.0000  ngfft=  30  30  72
         ecut(hartree)=     40.000   => boxcut(ratio)=   2.07701
- pspini: atom type   1  psp file is ../psp/5b.pspnc
- pspatm: opening atomic psp file    ../psp/5b.pspnc
-  Troullier-Martins psp for element  B         Thu Oct 27 17:29:24 EDT 1994
-  5.00000   3.00000    940714                znucl, zion, pspdat
    1    1    1    1      2001   0.00000      pspcod,pspxc,lmax,lloc,mmax,r2well
    0   8.313  21.401    1   1.5924135        l,e99.0,e99.9,nproj,rcpsp
   0.00000000   0.00000000   0.00000000   0.00000000     rms, ekb1, ekb2, epsatm
    1  11.531  17.234    0   1.5924135        l,e99.0,e99.9,nproj,rcpsp
   0.00000000   0.00000000   0.00000000   0.00000000     rms, ekb1, ekb2, epsatm
    1.10004537463277    0.35216853368804    0.40909985967175   rchrg,fchrg,qchrg
  pspatm : epsatm=    0.59609267
         --- l  ekb(1:nproj) -->
             0    3.906219
 pspatm: atomic psp has been read  and splines computed

- pspini: atom type   2  psp file is ../psp/7n.pspnc
- pspatm: opening atomic psp file    ../psp/7n.pspnc
-  Troullier-Martins psp for element  N         Thu Oct 27 17:29:45 EDT 1994
-  7.00000   5.00000    940714                znucl, zion, pspdat
    1    1    1    1      2001   0.00000      pspcod,pspxc,lmax,lloc,mmax,r2well
    0   9.676  16.205    1   1.4975844        l,e99.0,e99.9,nproj,rcpsp
   0.00000000   0.00000000   0.00000000   0.00000000     rms, ekb1, ekb2, epsatm
    1  17.792  24.348    0   1.4975844        l,e99.0,e99.9,nproj,rcpsp
   0.00000000   0.00000000   0.00000000   0.00000000     rms, ekb1, ekb2, epsatm
    0.67622446232424    2.19275283188720    0.59171052714445   rchrg,fchrg,qchrg
  pspatm : epsatm=    1.31070843
         --- l  ekb(1:nproj) -->
             0    5.141679
 pspatm: atomic psp has been read  and splines computed

   6.10176352E+01                                ecore*ucvol(ha*bohr**3)
 ==== Info on pseudopotentials ====
  Norm-conserving pseudopotentials
  Number of pseudopotentials ..    2
  Number of types of atoms   ..    2
  Scalar calculation (no spin-orbit term)
  Nonlocal part applied using Legendre polynomials
  Max number of non-local projectors over l and type   1
  Highest angular momentum +1 .......   2
  Max number of (l,n)   components ..   1
  Max number of (l,m,n) components ..   1

 Pseudo-Core Charge Info: 
   Number of radial points for pseudo-core charge .. 2501
   XC core-correction treatment (optnlxccc) ........    1
   Radius for pseudo-core charge for each type ..... 

  - Atom type    1 has pseudo-core radius ..  3.3001
  - Atom type    2 has pseudo-core radius ..  2.0287

 Info on the Q-grid used for form factors in spline form: 
   Number of q-points for radial functions ffspl ..   3467
   Number of q-points for vlspl ...................   3467
   vloc is computed in Reciprocal Space
   model core charge treated in real-space

  XC functional for type 1 is 1
  Pseudo valence available: no
  XC functional for type 2 is 1
  Pseudo valence available: no

 wfconv:    10 bands initialized randomly with npw=  1416, for ikpt=     1
 wfconv:    10 bands initialized randomly with npw=  2820, for ikpt=     2
 wfconv:    10 bands initialized randomly with npw=  1417, for ikpt=     3
 wfconv:    10 bands initialized randomly with npw=  2825, for ikpt=     4
 wfconv:    10 bands initialized randomly with npw=  2849, for ikpt=     5
 wfconv:    10 bands initialized randomly with npw=  2830, for ikpt=     6
 wfconv:    10 bands initialized randomly with npw=  2840, for ikpt=     7
 wfconv:    10 bands initialized randomly with npw=  2840, for ikpt=     8
 wfconv:    10 bands initialized randomly with npw=  1427, for ikpt=     9
 wfconv:    10 bands initialized randomly with npw=  2820, for ikpt=    10
 wfconv:    10 bands initialized randomly with npw=  1420, for ikpt=    11
 wfconv:    10 bands initialized randomly with npw=  2828, for ikpt=    12
_setup2: Arith. and geom. avg. npw (full set) are    2831.922    2831.909
 initro: for itypat=  1, take decay length=      1.0000,
 initro: indeed, coreel=      2.0000, nval=  3 and densty=  0.0000E+00.
 initro: for itypat=  2, take decay length=      0.6000,
 initro: indeed, coreel=      2.0000, nval=  5 and densty=  0.0000E+00.

================================================================================

 getcut: wavevector=  0.0000  0.0000  0.0000  ngfft=  30  30  72
         ecut(hartree)=     40.000   => boxcut(ratio)=   2.07701

 ITER STEP NUMBER     1
 vtorho : nnsclo_now=2, note that nnsclo,dbl_nnsclo,istep=0 0 1
 non-scf iterations; kpt #     1  , k= (  0.00000  0.00000  0.00000  ), band residuals:
 res:  5.70E-01  4.48E-01  4.72E-01  4.03E-01  2.77E-01  1.45E-01  3.38E-01  3.46E-01
 res:  2.08E-01  2.26E-01
 ene: -4.67E-01 -3.75E-01 -4.75E-02  2.15E-03  7.93E-03  7.30E-02  1.10E-01  2.10E-01
 ene:  4.38E-01  6.41E-01
 res:  3.94E-03  1.69E-02  4.90E-03  4.17E-03  1.40E-03  8.64E-03  1.75E-02  2.36E-02
 res:  1.03E-02  7.66E-03
 ene: -5.96E-01 -5.89E-01 -1.25E-01 -6.10E-02 -4.12E-02 -4.05E-02 -4.00E-02 -3.99E-02
 ene:  3.55E-01  5.25E-01
 vtowfk : number of one-way 3D ffts skipped in vtowfk until now =2
     eigenvalues (hartree) for   10  bands
              after    3 non-SCF iterations with    4 CG line minimizations
 -5.9615E-01 -5.8895E-01 -1.2491E-01 -6.1040E-02 -4.1167E-02 -4.0497E-02
 -3.9957E-02 -3.9913E-02  3.5508E-01  5.2465E-01
 non-scf iterations; kpt #     2  , k= (  0.25000  0.00000  0.00000  ), band residuals:
 res:  5.50E-01  5.75E-01  4.30E-01  4.66E-01  2.69E-01  4.40E-01  3.64E-01  3.31E-01
 res:  2.16E-01  1.41E-01
 ene: -4.04E-01 -3.90E-01 -8.12E-02 -5.07E-02 -3.84E-02  2.11E-02  5.18E-02  1.80E-01
 ene:  5.14E-01  6.34E-01
 res:  8.85E-03  1.37E-02  3.15E-03  6.85E-03  2.32E-03  8.85E-03  1.58E-02  1.75E-02
 res:  1.43E-02  2.50E-02
 ene: -5.56E-01 -5.50E-01 -1.58E-01 -1.56E-01 -9.27E-02 -9.09E-02 -6.88E-02 -1.29E-02
 ene:  4.19E-01  4.67E-01
 vtowfk : number of one-way 3D ffts skipped in vtowfk until now =4
     eigenvalues (hartree) for   10  bands
              after    3 non-SCF iterations with    4 CG line minimizations
 -5.5608E-01 -5.4996E-01 -1.5806E-01 -1.5601E-01 -9.2663E-02 -9.0887E-02
 -6.8763E-02 -1.2887E-02  4.1863E-01  4.6663E-01
 non-scf iterations; kpt #     3  , k= (  0.50000  0.00000  0.00000  ), band residuals:
 res:  3.89E-01  3.94E-01  6.86E-01  8.01E-01  2.63E-01  3.95E-01  3.14E-01  2.95E-01
 res:  1.94E-01  2.00E-01
 ene: -3.73E-01 -3.02E-01 -1.94E-01 -1.31E-01  6.73E-03  6.29E-02  1.14E-01  3.54E-01
 ene:  5.68E-01  5.94E-01
 res:  5.08E-03  2.35E-02  1.22E-02  1.56E-02  2.66E-02  1.32E-02  8.18E-03  1.33E-01
 res:  6.57E-02  4.47E-02
 ene: -4.90E-01 -4.82E-01 -2.79E-01 -2.72E-01 -1.32E-01 -1.21E-01  2.99E-02  7.96E-02
 ene:  3.08E-01  3.30E-01
 vtowfk : number of one-way 3D ffts skipped in vtowfk until now =6
     eigenvalues (hartree) for   10  bands
              after    3 non-SCF iterations with    4 CG line minimizations
 -4.9046E-01 -4.8184E-01 -2.7890E-01 -2.7203E-01 -1.3206E-01 -1.2096E-01
  2.9870E-02  7.9628E-02  3.0812E-01  3.2983E-01
 non-scf iterations; kpt #     4  , k= (  0.25000  0.25000  0.00000  ), band residuals:
 res:  5.20E-01  6.38E-01  3.70E-01  4.61E-01  4.44E-01  4.63E-01  5.18E-01  2.96E-01
 res:  2.55E-01  1.84E-01
 ene: -3.75E-01 -3.33E-01 -1.60E-01 -1.45E-01 -1.05E-01 -1.88E-02  1.18E-01  2.19E-01
 ene:  3.75E-01  5.25E-01
 res:  7.00E-03  1.10E-02  5.02E-03  4.14E-03  5.37E-03  1.64E-02  3.48E-03  2.10E-02
 res:  7.78E-03  2.14E-02
 ene: -4.97E-01 -4.91E-01 -2.40E-01 -2.38E-01 -1.83E-01 -1.80E-01  2.36E-02  5.48E-02
 ene:  3.08E-01  3.21E-01
 vtowfk : number of one-way 3D ffts skipped in vtowfk until now =8
     eigenvalues (hartree) for   10  bands
              after    3 non-SCF iterations with    4 CG line minimizations
 -4.9699E-01 -4.9144E-01 -2.3955E-01 -2.3831E-01 -1.8297E-01 -1.8027E-01
  2.3609E-02  5.4838E-02  3.0820E-01  3.2115E-01
 non-scf iterations; kpt #     5  , k= (  0.00000  0.00000  0.25000  ), band residuals:
 res:  6.06E-01  7.88E-01  3.74E-01  3.23E-01  3.86E-01  3.14E-01  2.57E-01  3.04E-01
 res:  2.33E-01  2.13E-01
 ene: -4.34E-01 -4.21E-01 -5.99E-02 -1.99E-02  3.38E-02  5.31E-02  1.19E-01  1.70E-01
 ene:  5.60E-01  6.18E-01
 res:  1.11E-02  1.80E-02  3.78E-03  2.64E-03  3.88E-03  7.35E-03  1.18E-02  1.73E-02
 res:  1.90E-02  1.26E-02
 ene: -5.94E-01 -5.88E-01 -1.17E-01 -7.27E-02 -4.09E-02 -4.06E-02 -4.02E-02 -3.85E-02
 ene:  3.79E-01  4.87E-01
 vtowfk : number of one-way 3D ffts skipped in vtowfk until now =10
     eigenvalues (hartree) for   10  bands
              after    3 non-SCF iterations with    4 CG line minimizations
 -5.9371E-01 -5.8846E-01 -1.1730E-01 -7.2694E-02 -4.0926E-02 -4.0626E-02
 -4.0172E-02 -3.8462E-02  3.7851E-01  4.8691E-01
 non-scf iterations; kpt #     6  , k= (  0.25000  0.00000  0.25000  ), band residuals:
 res:  7.81E-01  4.74E-01  5.05E-01  3.76E-01  4.40E-01  4.02E-01  3.32E-01  3.94E-01
 res:  1.80E-01  1.87E-01
 ene: -4.48E-01 -3.62E-01 -7.30E-02 -2.79E-02 -1.11E-02  1.72E-02  7.36E-02  1.11E-01
 ene:  5.03E-01  6.41E-01
 res:  5.97E-03  1.20E-02  4.23E-03  6.36E-03  5.93E-03  8.41E-03  1.83E-02  1.47E-02
 res:  1.25E-02  2.33E-02
 ene: -5.57E-01 -5.50E-01 -1.57E-01 -1.55E-01 -9.32E-02 -9.20E-02 -6.10E-02 -2.18E-02
 ene:  4.13E-01  4.63E-01
 vtowfk : number of one-way 3D ffts skipped in vtowfk until now =12
     eigenvalues (hartree) for   10  bands
              after    3 non-SCF iterations with    4 CG line minimizations
 -5.5711E-01 -5.4959E-01 -1.5677E-01 -1.5526E-01 -9.3167E-02 -9.2026E-02
 -6.0961E-02 -2.1811E-02  4.1331E-01  4.6342E-01
 non-scf iterations; kpt #     7  , k= (  0.50000  0.00000  0.25000  ), band residuals:
 res:  7.01E-01  4.07E-01  4.59E-01  5.43E-01  3.92E-01  2.33E-01  3.75E-01  2.65E-01
 res:  2.78E-01  1.93E-01
 ene: -3.77E-01 -3.41E-01 -1.96E-01 -1.64E-01 -5.10E-02  4.92E-03  1.24E-01  1.91E-01
 ene:  3.99E-01  5.65E-01
 res:  8.67E-03  7.88E-03  6.98E-03  8.33E-03  5.50E-03  9.95E-03  7.16E-03  1.49E-02
 res:  1.15E-02  2.07E-02
 ene: -4.91E-01 -4.88E-01 -2.79E-01 -2.77E-01 -1.32E-01 -1.31E-01  3.41E-02  5.37E-02
 ene:  2.88E-01  4.03E-01
 vtowfk : number of one-way 3D ffts skipped in vtowfk until now =14
     eigenvalues (hartree) for   10  bands
              after    3 non-SCF iterations with    4 CG line minimizations
 -4.9135E-01 -4.8794E-01 -2.7887E-01 -2.7670E-01 -1.3231E-01 -1.3149E-01
  3.4077E-02  5.3685E-02  2.8795E-01  4.0303E-01
 non-scf iterations; kpt #     8  , k= (  0.25000  0.25000  0.25000  ), band residuals:
 res:  6.00E-01  3.07E-01  4.69E-01  3.35E-01  3.38E-01  4.32E-01  3.39E-01  2.75E-01
 res:  2.49E-01  2.82E-01
 ene: -3.89E-01 -3.36E-01 -1.69E-01 -1.54E-01 -1.11E-01 -6.07E-02  1.23E-01  1.74E-01
 ene:  3.96E-01  4.95E-01
 res:  6.74E-03  1.05E-02  2.64E-03  4.68E-03  3.55E-03  8.05E-03  4.35E-03  1.02E-02
 res:  6.19E-03  1.32E-02
 ene: -4.96E-01 -4.92E-01 -2.40E-01 -2.39E-01 -1.83E-01 -1.82E-01  2.53E-02  4.97E-02
 ene:  3.08E-01  3.16E-01
 vtowfk : number of one-way 3D ffts skipped in vtowfk until now =16
     eigenvalues (hartree) for   10  bands
              after    3 non-SCF iterations with    4 CG line minimizations
 -4.9643E-01 -4.9248E-01 -2.3994E-01 -2.3917E-01 -1.8302E-01 -1.8157E-01
  2.5325E-02  4.9696E-02  3.0763E-01  3.1582E-01
 non-scf iterations; kpt #     9  , k= (  0.00000  0.00000  0.50000  ), band residuals:
 res:  5.92E-01  4.52E-01  4.79E-01  2.98E-01  4.80E-01  3.54E-01  2.64E-01  2.09E-01
 res:  1.15E-01  2.34E-01
 ene: -4.77E-01 -4.11E-01 -1.50E-02 -9.11E-03  7.88E-03  2.39E-02  4.25E-02  8.38E-02
 ene:  5.28E-01  5.71E-01
 res:  5.66E-03  1.15E-02  2.32E-03  3.58E-03  6.06E-03  6.81E-03  5.73E-03  1.19E-02
 res:  1.23E-02  9.68E-03
 ene: -5.94E-01 -5.91E-01 -9.61E-02 -9.46E-02 -4.07E-02 -4.06E-02 -4.05E-02 -4.03E-02
 ene:  4.25E-01  4.86E-01
 vtowfk : number of one-way 3D ffts skipped in vtowfk until now =18
     eigenvalues (hartree) for   10  bands
              after    3 non-SCF iterations with    4 CG line minimizations
 -5.9389E-01 -5.9149E-01 -9.6068E-02 -9.4553E-02 -4.0723E-02 -4.0639E-02
 -4.0491E-02 -4.0335E-02  4.2527E-01  4.8647E-01
 non-scf iterations; kpt #    10  , k= (  0.25000  0.00000  0.50000  ), band residuals:
 res:  5.43E-01  4.83E-01  3.96E-01  4.04E-01  2.50E-01  4.22E-01  3.54E-01  3.20E-01
 res:  1.60E-01  1.26E-01
 ene: -4.61E-01 -4.18E-01 -8.38E-02 -4.77E-02 -2.93E-02  3.03E-02  5.08E-02  1.13E-01
 ene:  5.10E-01  5.60E-01
 res:  6.50E-03  7.70E-03  3.44E-03  5.40E-03  5.26E-03  1.03E-02  8.61E-03  1.45E-02
 res:  1.69E-02  1.55E-02
 ene: -5.55E-01 -5.54E-01 -1.57E-01 -1.57E-01 -9.27E-02 -9.16E-02 -4.37E-02 -4.33E-02
 ene:  4.14E-01  4.47E-01
 vtowfk : number of one-way 3D ffts skipped in vtowfk until now =20
     eigenvalues (hartree) for   10  bands
              after    3 non-SCF iterations with    4 CG line minimizations
 -5.5454E-01 -5.5404E-01 -1.5719E-01 -1.5669E-01 -9.2666E-02 -9.1555E-02
 -4.3737E-02 -4.3309E-02  4.1401E-01  4.4732E-01
 non-scf iterations; kpt #    11  , k= (  0.50000  0.00000  0.50000  ), band residuals:
 res:  5.44E-01  3.48E-01  5.35E-01  3.40E-01  4.91E-01  3.32E-01  6.08E-01  5.66E-01
 res:  3.30E-01  1.94E-01
 ene: -4.31E-01 -3.28E-01 -1.59E-01 -1.31E-01 -5.40E-02  3.56E-02  9.62E-02  2.46E-01
 ene:  3.71E-01  4.80E-01
 res:  2.54E-03  1.24E-02  8.87E-03  1.18E-02  4.14E-03  1.28E-02  3.33E-03  3.05E-02
 res:  1.13E-02  3.14E-02
 ene: -4.92E-01 -4.87E-01 -2.78E-01 -2.76E-01 -1.33E-01 -1.32E-01  4.20E-02  5.12E-02
 ene:  2.86E-01  2.93E-01
 vtowfk : number of one-way 3D ffts skipped in vtowfk until now =22
     eigenvalues (hartree) for   10  bands
              after    3 non-SCF iterations with    4 CG line minimizations
 -4.9224E-01 -4.8698E-01 -2.7849E-01 -2.7645E-01 -1.3276E-01 -1.3243E-01
  4.2001E-02  5.1228E-02  2.8581E-01  2.9327E-01
 non-scf iterations; kpt #    12  , k= (  0.25000  0.25000  0.50000  ), band residuals:
 res:  5.23E-01  4.67E-01  5.59E-01  3.19E-01  3.78E-01  5.17E-01  2.87E-01  3.55E-01
 res:  2.74E-01  2.61E-01
 ene: -4.14E-01 -3.04E-01 -1.84E-01 -1.22E-01 -8.37E-02 -4.04E-02  1.18E-01  1.87E-01
 ene:  4.06E-01  5.26E-01
 res:  3.56E-03  1.40E-02  3.98E-03  5.96E-03  5.90E-03  1.20E-02  3.15E-03  1.25E-02
 res:  6.26E-03  1.56E-02
 ene: -4.95E-01 -4.93E-01 -2.39E-01 -2.39E-01 -1.83E-01 -1.82E-01  3.72E-02  3.84E-02
 ene:  3.09E-01  3.11E-01
 vtowfk : number of one-way 3D ffts skipped in vtowfk until now =24
     eigenvalues (hartree) for   10  bands
              after    3 non-SCF iterations with    4 CG line minimizations
 -4.9547E-01 -4.9275E-01 -2.3948E-01 -2.3940E-01 -1.8261E-01 -1.8229E-01
  3.7244E-02  3.8390E-02  3.0940E-01  3.1055E-01
 Total charge density [el/Bohr^3]
      Maximum=    6.7283E-01  at reduced coord.    0.8000    0.4000    0.5000
      Minimum=    1.4753E-03  at reduced coord.    0.0000    0.0000    0.2500
   Integrated=    1.6000E+01
  rhotov : is_hybrid_ncpp= F
  rhotov : n3xccc=       64800
 ETOT  1  -26.950299162252    -2.695E+01 1.332E-01 1.105E+03
 scprqt: <Vxc>= -3.8134099E-01 hartree

Simple mixing update:
  residual square of the potential :   552.75572101617342
 scfcv_core: previous iteration took 01 [s]

 ITER STEP NUMBER     2
 vtorho : nnsclo_now=2, note that nnsclo,dbl_nnsclo,istep=0 0 2
 non-scf iterations; kpt #     1  , k= (  0.00000  0.00000  0.00000  ), band residuals:
 res:  6.90E-03  5.38E-03  7.61E-04  4.69E-04  3.08E-04  5.29E-04  3.48E-04  3.16E-04
 res:  6.60E-03  4.03E-02
 ene: -4.44E-01 -4.24E-01 -4.88E-02  5.19E-02  1.70E-01  1.70E-01  1.73E-01  1.73E-01
 ene:  3.82E-01  6.11E-01
 res:  4.39E-06  2.34E-05  1.15E-05  4.13E-07  8.13E-09  7.89E-06  1.04E-07  5.84E-06
 res:  4.42E-06  3.09E-04
 ene: -4.44E-01 -4.28E-01 -4.93E-02  5.18E-02  1.70E-01  1.70E-01  1.73E-01  1.73E-01
 ene:  3.82E-01  6.08E-01
 vtowfk : number of one-way 3D ffts skipped in vtowfk until now =26
     eigenvalues (hartree) for   10  bands
              after    3 non-SCF iterations with    4 CG line minimizations
 -4.4445E-01 -4.2804E-01 -4.9252E-02  5.1817E-02  1.6991E-01  1.6991E-01
  1.7268E-01  1.7268E-01  3.8221E-01  6.0818E-01
 non-scf iterations; kpt #     2  , k= (  0.25000  0.00000  0.00000  ), band residuals:
 res:  6.50E-03  1.04E-03  6.44E-04  1.44E-03  1.80E-04  1.90E-04  1.02E-03  1.60E-03
 res:  9.43E-03  1.67E-02
 ene: -3.97E-01 -3.83E-01  1.47E-02  2.11E-02  2.55E-02  1.02E-01  1.06E-01  1.10E-01
 ene:  4.51E-01  5.27E-01
 res:  4.41E-05  9.28E-06  5.59E-06  3.18E-06  5.85E-06  6.08E-08  2.10E-07  1.72E-05
 res:  1.33E-04  1.32E-03
 ene: -3.97E-01 -3.83E-01  1.46E-02  2.08E-02  2.52E-02  1.02E-01  1.06E-01  1.09E-01
 ene:  4.48E-01  5.18E-01
 vtowfk : number of one-way 3D ffts skipped in vtowfk until now =28
     eigenvalues (hartree) for   10  bands
              after    3 non-SCF iterations with    4 CG line minimizations
 -3.9749E-01 -3.8318E-01  1.4574E-02  2.0837E-02  2.5193E-02  1.0195E-01
  1.0555E-01  1.0919E-01  4.4843E-01  5.1814E-01
 non-scf iterations; kpt #     3  , k= (  0.50000  0.00000  0.00000  ), band residuals:
 res:  3.76E-04  3.85E-04  2.40E-04  3.17E-04  1.43E-04  3.60E-04  2.55E-03  8.73E-04
 res:  1.70E-03  4.44E-03
 ene: -3.10E-01 -3.05E-01 -1.33E-01 -1.30E-01  5.46E-02  5.85E-02  1.47E-01  2.08E-01
 ene:  3.13E-01  3.91E-01
 res:  5.18E-07  9.73E-07  3.67E-07  3.22E-07  2.50E-08  1.12E-07  2.36E-06  4.49E-07
 res:  2.70E-06  2.04E-05
 ene: -3.10E-01 -3.05E-01 -1.33E-01 -1.30E-01  5.46E-02  5.85E-02  1.47E-01  2.08E-01
 ene:  3.13E-01  3.90E-01
 vtowfk : number of one-way 3D ffts skipped in vtowfk until now =30
     eigenvalues (hartree) for   10  bands
              after    3 non-SCF iterations with    4 CG line minimizations
 -3.0952E-01 -3.0548E-01 -1.3300E-01 -1.2989E-01  5.4571E-02  5.8523E-02
  1.4707E-01  2.0757E-01  3.1320E-01  3.9033E-01
 non-scf iterations; kpt #     4  , k= (  0.25000  0.25000  0.00000  ), band residuals:
 res:  5.54E-04  3.96E-04  4.88E-04  3.91E-04  1.71E-04  1.65E-04  3.86E-03  6.50E-04
 res:  7.38E-04  4.26E-03
 ene: -3.19E-01 -3.10E-01 -7.84E-02 -7.66E-02 -1.61E-02 -1.31E-02  1.30E-01  2.04E-01
 ene:  3.67E-01  4.16E-01
 res:  2.22E-07  2.37E-07  8.96E-08  8.17E-08  6.34E-08  6.99E-08  5.14E-07  1.19E-07
 res:  3.16E-07  3.92E-06
 ene: -3.19E-01 -3.10E-01 -7.84E-02 -7.66E-02 -1.61E-02 -1.31E-02  1.30E-01  2.04E-01
 ene:  3.67E-01  4.16E-01
 vtowfk : number of one-way 3D ffts skipped in vtowfk until now =32
     eigenvalues (hartree) for   10  bands
              after    3 non-SCF iterations with    4 CG line minimizations
 -3.1856E-01 -3.0974E-01 -7.8417E-02 -7.6588E-02 -1.6080E-02 -1.3062E-02
  1.3040E-01  2.0423E-01  3.6700E-01  4.1550E-01
 non-scf iterations; kpt #     5  , k= (  0.00000  0.00000  0.25000  ), band residuals:
 res:  6.50E-03  2.90E-03  1.95E-03  1.42E-03  4.67E-04  4.26E-04  5.92E-04  3.76E-04
 res:  7.59E-03  9.21E-03
 ene: -4.42E-01 -4.30E-01 -3.68E-02  3.29E-02  1.70E-01  1.70E-01  1.72E-01  1.73E-01
 ene:  4.15E-01  5.87E-01
 res:  7.95E-06  7.05E-06  4.68E-06  2.10E-06  1.07E-07  3.19E-06  1.67E-07  2.01E-06
 res:  1.52E-05  2.73E-03
 ene: -4.42E-01 -4.31E-01 -3.72E-02  3.28E-02  1.70E-01  1.70E-01  1.72E-01  1.72E-01
 ene:  4.14E-01  5.76E-01
 vtowfk : number of one-way 3D ffts skipped in vtowfk until now =34
     eigenvalues (hartree) for   10  bands
              after    3 non-SCF iterations with    4 CG line minimizations
 -4.4226E-01 -4.3063E-01 -3.7221E-02  3.2782E-02  1.7015E-01  1.7015E-01
  1.7244E-01  1.7244E-01  4.1438E-01  5.7561E-01
 non-scf iterations; kpt #     6  , k= (  0.25000  0.00000  0.25000  ), band residuals:
 res:  5.57E-03  9.10E-04  1.09E-03  8.26E-04  1.68E-04  1.61E-04  1.10E-03  3.26E-03
 res:  7.15E-03  1.14E-02
 ene: -3.95E-01 -3.85E-01  1.85E-02  2.43E-02  2.95E-02  9.26E-02  1.02E-01  1.05E-01
 ene:  4.72E-01  5.50E-01
 res:  2.39E-05  5.67E-06  8.57E-07  2.76E-06  6.29E-06  6.60E-06  1.01E-07  8.86E-08
 res:  2.40E-04  3.38E-03
 ene: -3.96E-01 -3.85E-01  1.84E-02  2.41E-02  2.91E-02  9.23E-02  1.02E-01  1.05E-01
 ene:  4.71E-01  5.37E-01
 vtowfk : number of one-way 3D ffts skipped in vtowfk until now =36
     eigenvalues (hartree) for   10  bands
              after    3 non-SCF iterations with    4 CG line minimizations
 -3.9556E-01 -3.8540E-01  1.8443E-02  2.4053E-02  2.9141E-02  9.2261E-02
  1.0234E-01  1.0514E-01  4.7137E-01  5.3728E-01
 non-scf iterations; kpt #     7  , k= (  0.50000  0.00000  0.25000  ), band residuals:
 res:  3.37E-04  1.11E-03  3.02E-04  2.71E-04  1.17E-04  1.30E-04  1.62E-03  4.35E-04
 res:  1.91E-03  9.13E-03
 ene: -3.08E-01 -3.06E-01 -1.33E-01 -1.30E-01  5.50E-02  5.81E-02  1.57E-01  1.99E-01
 ene:  3.20E-01  3.74E-01
 res:  8.19E-06  9.32E-07  1.78E-06  1.07E-07  1.72E-08  2.06E-08  6.16E-06  2.02E-06
 res:  1.40E-05  1.33E-05
 ene: -3.09E-01 -3.06E-01 -1.33E-01 -1.30E-01  5.50E-02  5.81E-02  1.56E-01  1.99E-01
 ene:  3.19E-01  3.73E-01
 vtowfk : number of one-way 3D ffts skipped in vtowfk until now =38
     eigenvalues (hartree) for   10  bands
              after    3 non-SCF iterations with    4 CG line minimizations
 -3.0900E-01 -3.0596E-01 -1.3293E-01 -1.3047E-01  5.5026E-02  5.8057E-02
  1.5578E-01  1.9925E-01  3.1878E-01  3.7320E-01
 non-scf iterations; kpt #     8  , k= (  0.25000  0.25000  0.25000  ), band residuals:
 res:  5.95E-04  4.81E-04  5.08E-04  4.14E-04  1.76E-04  1.62E-04  3.36E-03  1.13E-03
 res:  1.12E-03  3.42E-03
 ene: -3.17E-01 -3.11E-01 -7.84E-02 -7.67E-02 -1.60E-02 -1.36E-02  1.40E-01  1.92E-01
 ene:  3.71E-01  4.06E-01
 res:  3.84E-07  2.73E-07  7.05E-08  6.97E-08  6.45E-08  6.29E-08  2.67E-07  1.60E-07
 res:  3.34E-07  1.08E-06
 ene: -3.17E-01 -3.11E-01 -7.84E-02 -7.67E-02 -1.60E-02 -1.36E-02  1.40E-01  1.92E-01
 ene:  3.71E-01  4.06E-01
 vtowfk : number of one-way 3D ffts skipped in vtowfk until now =40
     eigenvalues (hartree) for   10  bands
              after    3 non-SCF iterations with    4 CG line minimizations
 -3.1735E-01 -3.1104E-01 -7.8426E-02 -7.6730E-02 -1.5973E-02 -1.3572E-02
  1.4026E-01  1.9233E-01  3.7078E-01  4.0566E-01
 non-scf iterations; kpt #     9  , k= (  0.00000  0.00000  0.50000  ), band residuals:
 res:  5.14E-03  1.17E-03  1.26E-03  3.18E-03  7.38E-04  3.84E-04  4.33E-04  7.64E-04
 res:  8.98E-03  1.07E-01
 ene: -4.37E-01 -4.35E-01 -5.32E-03 -4.55E-03  1.70E-01  1.71E-01  1.72E-01  1.73E-01
 ene:  4.90E-01  5.47E-01
 res:  2.24E-06  1.45E-05  7.68E-06  7.09E-06  1.16E-07  7.17E-07  1.69E-07  1.08E-05
 res:  1.43E-04  3.20E-03
 ene: -4.37E-01 -4.36E-01 -5.77E-03 -4.99E-03  1.70E-01  1.70E-01  1.72E-01  1.72E-01
 ene:  4.89E-01  4.90E-01
 vtowfk : number of one-way 3D ffts skipped in vtowfk until now =42
     eigenvalues (hartree) for   10  bands
              after    3 non-SCF iterations with    4 CG line minimizations
 -4.3737E-01 -4.3591E-01 -5.7712E-03 -4.9948E-03  1.7045E-01  1.7045E-01
  1.7213E-01  1.7213E-01  4.8937E-01  4.8970E-01
 non-scf iterations; kpt #    10  , k= (  0.25000  0.00000  0.50000  ), band residuals:
 res:  2.50E-03  2.20E-03  7.23E-04  6.59E-04  1.46E-04  1.65E-04  3.97E-03  4.37E-03
 res:  7.64E-03  1.40E-02
 ene: -3.91E-01 -3.90E-01  2.09E-02  2.24E-02  5.82E-02  5.96E-02  1.03E-01  1.05E-01
 ene:  5.10E-01  5.22E-01
 res:  2.12E-05  6.38E-06  9.09E-07  1.76E-06  5.62E-06  2.61E-05  3.77E-08  2.85E-08
 res:  2.20E-04  1.61E-03
 ene: -3.91E-01 -3.90E-01  2.08E-02  2.23E-02  5.74E-02  5.80E-02  1.03E-01  1.05E-01
 ene:  5.09E-01  5.11E-01
 vtowfk : number of one-way 3D ffts skipped in vtowfk until now =44
     eigenvalues (hartree) for   10  bands
              after    3 non-SCF iterations with    4 CG line minimizations
 -3.9136E-01 -3.8990E-01  2.0805E-02  2.2286E-02  5.7350E-02  5.8029E-02
  1.0291E-01  1.0457E-01  5.0875E-01  5.1061E-01
 non-scf iterations; kpt #    11  , k= (  0.50000  0.00000  0.50000  ), band residuals:
 res:  3.71E-04  3.48E-04  2.16E-04  2.62E-04  1.04E-04  1.06E-04  1.06E-03  1.31E-03
 res:  1.11E-03  1.56E-03
 ene: -3.08E-01 -3.07E-01 -1.33E-01 -1.31E-01  5.57E-02  5.74E-02  1.77E-01  1.78E-01
 ene:  3.41E-01  3.41E-01
 res:  1.61E-07  1.43E-07  7.02E-08  6.30E-08  9.34E-09  4.78E-09  3.68E-07  9.55E-07
 res:  3.57E-07  7.06E-07
 ene: -3.08E-01 -3.07E-01 -1.33E-01 -1.31E-01  5.57E-02  5.74E-02  1.77E-01  1.78E-01
 ene:  3.41E-01  3.41E-01
 vtowfk : number of one-way 3D ffts skipped in vtowfk until now =46
     eigenvalues (hartree) for   10  bands
              after    3 non-SCF iterations with    4 CG line minimizations
 -3.0821E-01 -3.0671E-01 -1.3271E-01 -1.3119E-01  5.5707E-02  5.7364E-02
  1.7704E-01  1.7787E-01  3.4058E-01  3.4133E-01
 non-scf iterations; kpt #    12  , k= (  0.25000  0.25000  0.50000  ), band residuals:
 res:  6.00E-04  6.61E-04  4.69E-04  4.87E-04  1.80E-04  1.91E-04  2.27E-03  2.29E-03
 res:  2.28E-03  2.39E-03
 ene: -3.15E-01 -3.13E-01 -7.84E-02 -7.69E-02 -1.57E-02 -1.42E-02  1.65E-01  1.66E-01
 ene:  3.85E-01  3.86E-01
 res:  3.35E-07  4.55E-07  6.98E-08  7.12E-08  6.74E-08  6.96E-08  2.36E-07  4.53E-07
 res:  4.43E-07  6.05E-07
 ene: -3.15E-01 -3.13E-01 -7.84E-02 -7.69E-02 -1.58E-02 -1.42E-02  1.65E-01  1.66E-01
 ene:  3.85E-01  3.86E-01
 vtowfk : number of one-way 3D ffts skipped in vtowfk until now =48
     eigenvalues (hartree) for   10  bands
              after    3 non-SCF iterations with    4 CG line minimizations
 -3.1499E-01 -3.1349E-01 -7.8439E-02 -7.6865E-02 -1.5752E-02 -1.4187E-02
  1.6483E-01  1.6564E-01  3.8510E-01  3.8590E-01
 Total charge density [el/Bohr^3]
      Maximum=    5.1137E-01  at reduced coord.    0.4000    0.8000    0.0000
      Minimum=    3.2548E-03  at reduced coord.    0.0000    0.0000    0.2500
   Integrated=    1.6000E+01
  rhotov : is_hybrid_ncpp= F
  rhotov : n3xccc=       64800
 ETOT  2  -27.010223716025    -5.992E-02 3.380E-03 3.686E+02
 scprqt: <Vxc>= -4.0497948E-01 hartree

 Pulay update with  1 previous iterations:
 mixing of old trial potential : alpha(m:m-4)=  0.622      0.378
 scfcv_core: previous iteration took 01 [s]

 ITER STEP NUMBER     3
 vtorho : nnsclo_now=1, note that nnsclo,dbl_nnsclo,istep=0 0 3
 non-scf iterations; kpt #     1  , k= (  0.00000  0.00000  0.00000  ), band residuals:
 res:  1.00E-03  2.33E-05  2.97E-04  7.45E-05  5.84E-05  1.15E-03  6.14E-05  5.69E-04
 res:  9.65E-04  9.05E-02
 ene: -5.06E-01 -4.93E-01 -8.96E-02 -2.05E-03  8.97E-02  9.06E-02  9.16E-02  9.26E-02
 ene:  3.47E-01  5.36E-01
 vtowfk : number of one-way 3D ffts skipped in vtowfk until now =50
     eigenvalues (hartree) for   10  bands
              after    2 non-SCF iterations with    4 CG line minimizations
 -5.0622E-01 -4.9253E-01 -8.9622E-02 -2.0465E-03  8.9744E-02  9.0618E-02
  9.1569E-02  9.2630E-02  3.4727E-01  5.3601E-01
 non-scf iterations; kpt #     2  , k= (  0.25000  0.00000  0.00000  ), band residuals:
 res:  1.10E-03  2.54E-04  1.66E-04  2.66E-04  3.32E-04  2.20E-05  2.13E-05  2.23E-03
 res:  9.67E-04  4.68E-03
 ene: -4.63E-01 -4.51E-01 -4.38E-02 -4.07E-02 -3.00E-02  3.13E-02  3.40E-02  4.94E-02
 ene:  4.14E-01  4.80E-01
 vtowfk : number of one-way 3D ffts skipped in vtowfk until now =52
     eigenvalues (hartree) for   10  bands
              after    2 non-SCF iterations with    4 CG line minimizations
 -4.6278E-01 -4.5109E-01 -4.3766E-02 -4.0736E-02 -3.0031E-02  3.1289E-02
  3.3977E-02  4.9386E-02  4.1364E-01  4.7985E-01
 non-scf iterations; kpt #     3  , k= (  0.50000  0.00000  0.00000  ), band residuals:
 res:  9.36E-05  1.31E-04  6.13E-05  4.10E-05  1.77E-05  1.57E-05  1.98E-03  2.45E-04
 res:  2.28E-04  1.96E-03
 ene: -3.88E-01 -3.84E-01 -1.81E-01 -1.78E-01 -1.17E-02 -8.61E-03  8.34E-02  1.23E-01
 ene:  3.10E-01  3.63E-01
 vtowfk : number of one-way 3D ffts skipped in vtowfk until now =54
     eigenvalues (hartree) for   10  bands
              after    2 non-SCF iterations with    4 CG line minimizations
 -3.8760E-01 -3.8434E-01 -1.8051E-01 -1.7762E-01 -1.1679E-02 -8.6074E-03
  8.3408E-02  1.2280E-01  3.0968E-01  3.6341E-01
 non-scf iterations; kpt #     4  , k= (  0.25000  0.25000  0.00000  ), band residuals:
 res:  2.96E-04  2.42E-04  2.48E-04  2.34E-04  6.02E-05  5.44E-05  2.20E-03  1.32E-03
 res:  1.23E-03  2.28E-03
 ene: -3.94E-01 -3.87E-01 -1.35E-01 -1.33E-01 -7.08E-02 -6.88E-02  7.17E-02  1.23E-01
 ene:  3.59E-01  3.78E-01
 vtowfk : number of one-way 3D ffts skipped in vtowfk until now =56
     eigenvalues (hartree) for   10  bands
              after    2 non-SCF iterations with    4 CG line minimizations
 -3.9363E-01 -3.8703E-01 -1.3507E-01 -1.3307E-01 -7.0812E-02 -6.8801E-02
  7.1709E-02  1.2289E-01  3.5876E-01  3.7785E-01
 non-scf iterations; kpt #     5  , k= (  0.00000  0.00000  0.25000  ), band residuals:
 res:  1.03E-03  8.95E-04  1.11E-03  2.29E-04  5.46E-05  1.29E-04  5.39E-05  9.57E-05
 res:  1.20E-03  5.13E-03
 ene: -5.04E-01 -4.95E-01 -7.90E-02 -1.80E-02  9.00E-02  9.00E-02  9.13E-02  9.14E-02
 ene:  3.74E-01  4.99E-01
 vtowfk : number of one-way 3D ffts skipped in vtowfk until now =58
     eigenvalues (hartree) for   10  bands
              after    2 non-SCF iterations with    4 CG line minimizations
 -5.0435E-01 -4.9461E-01 -7.9018E-02 -1.8018E-02  8.9963E-02  8.9978E-02
  9.1343E-02  9.1356E-02  3.7412E-01  4.9873E-01
 non-scf iterations; kpt #     6  , k= (  0.25000  0.00000  0.25000  ), band residuals:
 res:  1.27E-03  2.90E-04  3.85E-04  3.51E-04  3.98E-04  2.19E-03  2.34E-05  2.21E-05
 res:  1.51E-03  4.51E-03
 ene: -4.61E-01 -4.53E-01 -4.42E-02 -4.15E-02 -1.92E-02  3.16E-02  3.36E-02  3.58E-02
 ene:  4.26E-01  5.01E-01
 vtowfk : number of one-way 3D ffts skipped in vtowfk until now =60
     eigenvalues (hartree) for   10  bands
              after    2 non-SCF iterations with    4 CG line minimizations
 -4.6115E-01 -4.5290E-01 -4.4153E-02 -4.1489E-02 -1.9248E-02  3.1645E-02
  3.3611E-02  3.5802E-02  4.2624E-01  5.0067E-01
 non-scf iterations; kpt #     7  , k= (  0.50000  0.00000  0.25000  ), band residuals:
 res:  1.01E-04  1.26E-04  5.91E-05  4.57E-05  1.73E-05  1.61E-05  1.68E-03  5.61E-04
 res:  5.57E-04  1.69E-03
 ene: -3.87E-01 -3.85E-01 -1.80E-01 -1.78E-01 -1.13E-02 -9.03E-03  8.96E-02  1.18E-01
 ene:  3.12E-01  3.50E-01
 vtowfk : number of one-way 3D ffts skipped in vtowfk until now =62
     eigenvalues (hartree) for   10  bands
              after    2 non-SCF iterations with    4 CG line minimizations
 -3.8713E-01 -3.8479E-01 -1.8030E-01 -1.7819E-01 -1.1263E-02 -9.0301E-03
  8.9636E-02  1.1784E-01  3.1237E-01  3.5019E-01
 non-scf iterations; kpt #     8  , k= (  0.25000  0.25000  0.25000  ), band residuals:
 res:  2.99E-04  2.54E-04  2.46E-04  2.40E-04  5.90E-05  5.56E-05  2.12E-03  1.49E-03
 res:  1.55E-03  2.20E-03
 ene: -3.93E-01 -3.88E-01 -1.35E-01 -1.33E-01 -7.07E-02 -6.92E-02  7.92E-02  1.15E-01
 ene:  3.57E-01  3.72E-01
 vtowfk : number of one-way 3D ffts skipped in vtowfk until now =64
     eigenvalues (hartree) for   10  bands
              after    2 non-SCF iterations with    4 CG line minimizations
 -3.9270E-01 -3.8801E-01 -1.3489E-01 -1.3339E-01 -7.0711E-02 -6.9203E-02
  7.9179E-02  1.1549E-01  3.5708E-01  3.7177E-01
 non-scf iterations; kpt #     9  , k= (  0.00000  0.00000  0.50000  ), band residuals:
 res:  9.82E-04  1.04E-03  5.13E-04  5.35E-04  5.37E-05  5.35E-05  5.43E-05  5.24E-05
 res:  1.61E-03  1.75E-03
 ene: -5.00E-01 -4.99E-01 -5.12E-02 -5.08E-02  9.03E-02  9.03E-02  9.10E-02  9.10E-02
 ene:  4.36E-01  4.36E-01
 vtowfk : number of one-way 3D ffts skipped in vtowfk until now =66
     eigenvalues (hartree) for   10  bands
              after    2 non-SCF iterations with    4 CG line minimizations
 -4.9997E-01 -4.9931E-01 -5.1226E-02 -5.0819E-02  9.0302E-02  9.0302E-02
  9.1003E-02  9.1003E-02  4.3610E-01  4.3619E-01
 non-scf iterations; kpt #    10  , k= (  0.25000  0.00000  0.50000  ), band residuals:
 res:  6.22E-04  5.99E-04  3.79E-04  4.16E-04  1.68E-03  1.76E-03  2.14E-05  2.18E-05
 res:  2.43E-03  2.79E-03
 ene: -4.57E-01 -4.57E-01 -4.35E-02 -4.28E-02  6.46E-03  6.82E-03  3.23E-02  3.30E-02
 ene:  4.48E-01  4.48E-01
 vtowfk : number of one-way 3D ffts skipped in vtowfk until now =68
     eigenvalues (hartree) for   10  bands
              after    2 non-SCF iterations with    4 CG line minimizations
 -4.5746E-01 -4.5680E-01 -4.3483E-02 -4.2797E-02  6.4626E-03  6.8172E-03
  3.2266E-02  3.2985E-02  4.4834E-01  4.4844E-01
 non-scf iterations; kpt #    11  , k= (  0.50000  0.00000  0.50000  ), band residuals:
 res:  1.10E-04  1.12E-04  5.23E-05  5.27E-05  1.66E-05  1.69E-05  1.19E-03  1.20E-03
 res:  1.21E-03  1.21E-03
 ene: -3.86E-01 -3.86E-01 -1.80E-01 -1.79E-01 -1.05E-02 -9.79E-03  1.04E-01  1.05E-01
 ene:  3.26E-01  3.27E-01
 vtowfk : number of one-way 3D ffts skipped in vtowfk until now =70
     eigenvalues (hartree) for   10  bands
              after    2 non-SCF iterations with    4 CG line minimizations
 -3.8627E-01 -3.8564E-01 -1.7980E-01 -1.7907E-01 -1.0515E-02 -9.7866E-03
  1.0413E-01  1.0450E-01  3.2618E-01  3.2664E-01
 non-scf iterations; kpt #    12  , k= (  0.25000  0.25000  0.50000  ), band residuals:
 res:  2.78E-04  2.80E-04  2.43E-04  2.45E-04  5.66E-05  5.75E-05  1.88E-03  1.89E-03
 res:  1.96E-03  1.97E-03
 ene: -3.91E-01 -3.90E-01 -1.35E-01 -1.34E-01 -7.05E-02 -6.97E-02  9.71E-02  9.75E-02
 ene:  3.61E-01  3.61E-01
 vtowfk : number of one-way 3D ffts skipped in vtowfk until now =72
     eigenvalues (hartree) for   10  bands
              after    2 non-SCF iterations with    4 CG line minimizations
 -3.9070E-01 -3.9006E-01 -1.3458E-01 -1.3385E-01 -7.0467E-02 -6.9744E-02
  9.7147E-02  9.7521E-02  3.6068E-01  3.6114E-01
 Total charge density [el/Bohr^3]
      Maximum=    6.0958E-01  at reduced coord.    0.8000    0.4000    0.5000
      Minimum=    2.5238E-03  at reduced coord.    0.0000    0.0000    0.2500
   Integrated=    1.6000E+01
  rhotov : is_hybrid_ncpp= F
  rhotov : n3xccc=       64800
 ETOT  3  -27.113512549835    -1.033E-01 9.051E-02 4.940E+01
 scprqt: <Vxc>= -3.9469175E-01 hartree

 Pulay update with  2 previous iterations:
 mixing of old trial potential : alpha(m:m-4)=  0.778      0.245     -0.227E-01
 scfcv_core: previous iteration took 00 [s]

 ITER STEP NUMBER     4
 vtorho : nnsclo_now=1, note that nnsclo,dbl_nnsclo,istep=0 0 4
 non-scf iterations; kpt #     1  , k= (  0.00000  0.00000  0.00000  ), band residuals:
 res:  7.99E-05  1.08E-06  2.05E-04  4.41E-06  2.88E-06  1.06E-05  3.17E-06  3.68E-05
 res:  7.85E-05  5.33E-03
 ene: -4.84E-01 -4.69E-01 -7.38E-02  1.88E-02  1.16E-01  1.16E-01  1.18E-01  1.18E-01
 ene:  3.57E-01  5.51E-01
 vtowfk : number of one-way 3D ffts skipped in vtowfk until now =74
     eigenvalues (hartree) for   10  bands
              after    2 non-SCF iterations with    4 CG line minimizations
 -4.8383E-01 -4.6929E-01 -7.3814E-02  1.8845E-02  1.1566E-01  1.1566E-01
  1.1788E-01  1.1788E-01  3.5723E-01  5.5083E-01
 non-scf iterations; kpt #     2  , k= (  0.25000  0.00000  0.00000  ), band residuals:
 res:  8.04E-05  1.24E-05  1.25E-05  2.11E-05  3.68E-05  9.16E-07  1.12E-06  1.23E-04
 res:  7.84E-05  8.77E-04
 ene: -4.40E-01 -4.27E-01 -2.12E-02 -1.78E-02 -1.27E-02  5.52E-02  5.82E-02  7.17E-02
 ene:  4.24E-01  4.91E-01
 vtowfk : number of one-way 3D ffts skipped in vtowfk until now =76
     eigenvalues (hartree) for   10  bands
              after    2 non-SCF iterations with    4 CG line minimizations
 -4.3955E-01 -4.2708E-01 -2.1191E-02 -1.7798E-02 -1.2730E-02  5.5181E-02
  5.8188E-02  7.1743E-02  4.2383E-01  4.9123E-01
 non-scf iterations; kpt #     3  , k= (  0.50000  0.00000  0.00000  ), band residuals:
 res:  5.46E-06  7.13E-06  2.94E-06  1.87E-06  5.53E-07  8.94E-07  1.09E-04  3.85E-06
 res:  2.44E-06  1.09E-04
 ene: -3.62E-01 -3.58E-01 -1.62E-01 -1.59E-01  1.12E-02  1.46E-02  1.06E-01  1.51E-01
 ene:  3.15E-01  3.75E-01
 vtowfk : number of one-way 3D ffts skipped in vtowfk until now =78
     eigenvalues (hartree) for   10  bands
              after    2 non-SCF iterations with    4 CG line minimizations
 -3.6156E-01 -3.5797E-01 -1.6164E-01 -1.5861E-01  1.1224E-02  1.4591E-02
  1.0646E-01  1.5097E-01  3.1534E-01  3.7500E-01
 non-scf iterations; kpt #     4  , k= (  0.25000  0.25000  0.00000  ), band residuals:
 res:  1.47E-05  1.16E-05  1.15E-05  1.01E-05  3.15E-06  2.82E-06  1.45E-04  3.53E-05
 res:  3.56E-05  1.46E-04
 ene: -3.68E-01 -3.61E-01 -1.14E-01 -1.12E-01 -5.04E-02 -4.81E-02  9.34E-02  1.51E-01
 ene:  3.65E-01  3.92E-01
 vtowfk : number of one-way 3D ffts skipped in vtowfk until now =80
     eigenvalues (hartree) for   10  bands
              after    2 non-SCF iterations with    4 CG line minimizations
 -3.6819E-01 -3.6096E-01 -1.1422E-01 -1.1217E-01 -5.0442E-02 -4.8087E-02
  9.3358E-02  1.5070E-01  3.6549E-01  3.9195E-01
 non-scf iterations; kpt #     5  , k= (  0.00000  0.00000  0.25000  ), band residuals:
 res:  7.93E-05  3.67E-05  1.59E-04  2.79E-05  2.80E-06  2.89E-06  3.00E-06  3.19E-06
 res:  1.03E-04  3.23E-04
 ene: -4.82E-01 -4.72E-01 -6.27E-02  1.73E-03  1.16E-01  1.16E-01  1.18E-01  1.18E-01
 ene:  3.86E-01  5.19E-01
 vtowfk : number of one-way 3D ffts skipped in vtowfk until now =82
     eigenvalues (hartree) for   10  bands
              after    2 non-SCF iterations with    4 CG line minimizations
 -4.8186E-01 -4.7156E-01 -6.2664E-02  1.7314E-03  1.1586E-01  1.1586E-01
  1.1767E-01  1.1767E-01  3.8584E-01  5.1917E-01
 non-scf iterations; kpt #     6  , k= (  0.25000  0.00000  0.25000  ), band residuals:
 res:  8.33E-05  1.52E-05  1.57E-05  2.16E-05  3.64E-05  9.90E-07  1.13E-06  1.46E-04
 res:  1.28E-04  2.53E-03
 ene: -4.38E-01 -4.29E-01 -2.18E-02 -1.86E-02 -1.15E-03  5.55E-02  5.71E-02  5.78E-02
 ene:  4.40E-01  5.08E-01
 vtowfk : number of one-way 3D ffts skipped in vtowfk until now =84
     eigenvalues (hartree) for   10  bands
              after    2 non-SCF iterations with    4 CG line minimizations
 -4.3785E-01 -4.2900E-01 -2.1827E-02 -1.8633E-02 -1.1463E-03  5.5533E-02
  5.7072E-02  5.7825E-02  4.3963E-01  5.0761E-01
 non-scf iterations; kpt #     7  , k= (  0.50000  0.00000  0.25000  ), band residuals:
 res:  6.35E-06  7.24E-06  2.99E-06  2.19E-06  6.25E-07  8.60E-07  8.79E-05  1.28E-05
 res:  1.24E-05  8.82E-05
 ene: -3.61E-01 -3.58E-01 -1.61E-01 -1.59E-01  1.16E-02  1.42E-02  1.13E-01  1.45E-01
 ene:  3.18E-01  3.61E-01
 vtowfk : number of one-way 3D ffts skipped in vtowfk until now =86
     eigenvalues (hartree) for   10  bands
              after    2 non-SCF iterations with    4 CG line minimizations
 -3.6110E-01 -3.5841E-01 -1.6147E-01 -1.5919E-01  1.1640E-02  1.4166E-02
  1.1339E-01  1.4534E-01  3.1850E-01  3.6053E-01
 non-scf iterations; kpt #     8  , k= (  0.25000  0.25000  0.25000  ), band residuals:
 res:  1.55E-05  1.25E-05  1.14E-05  1.06E-05  3.12E-06  2.91E-06  1.32E-04  5.54E-05
 res:  5.60E-05  1.33E-04
 ene: -3.67E-01 -3.62E-01 -1.14E-01 -1.12E-01 -5.03E-02 -4.85E-02  1.02E-01  1.42E-01
 ene:  3.65E-01  3.85E-01
 vtowfk : number of one-way 3D ffts skipped in vtowfk until now =88
     eigenvalues (hartree) for   10  bands
              after    2 non-SCF iterations with    4 CG line minimizations
 -3.6719E-01 -3.6201E-01 -1.1409E-01 -1.1246E-01 -5.0346E-02 -4.8512E-02
  1.0155E-01  1.4221E-01  3.6495E-01  3.8481E-01
 non-scf iterations; kpt #     9  , k= (  0.00000  0.00000  0.50000  ), band residuals:
 res:  6.77E-05  7.09E-05  7.45E-05  7.99E-05  2.74E-06  2.74E-06  2.96E-06  2.96E-06
 res:  1.48E-04  1.46E-04
 ene: -4.77E-01 -4.76E-01 -3.36E-02 -3.28E-02  1.16E-01  1.16E-01  1.17E-01  1.17E-01
 ene:  4.52E-01  4.52E-01
 vtowfk : number of one-way 3D ffts skipped in vtowfk until now =90
     eigenvalues (hartree) for   10  bands
              after    2 non-SCF iterations with    4 CG line minimizations
 -4.7743E-01 -4.7630E-01 -3.3638E-02 -3.2752E-02  1.1613E-01  1.1613E-01
  1.1740E-01  1.1740E-01  4.5185E-01  4.5188E-01
 non-scf iterations; kpt #    10  , k= (  0.25000  0.00000  0.50000  ), band residuals:
 res:  3.69E-05  3.89E-05  1.98E-05  2.13E-05  1.44E-04  1.54E-04  9.38E-07  9.91E-07
 res:  1.82E-04  2.24E-04
 ene: -4.34E-01 -4.33E-01 -2.11E-02 -2.00E-02  2.57E-02  2.66E-02  5.61E-02  5.73E-02
 ene:  4.66E-01  4.67E-01
 vtowfk : number of one-way 3D ffts skipped in vtowfk until now =92
     eigenvalues (hartree) for   10  bands
              after    2 non-SCF iterations with    4 CG line minimizations
 -4.3412E-01 -4.3296E-01 -2.1089E-02 -1.9975E-02  2.5663E-02  2.6551E-02
  5.6069E-02  5.7284E-02  4.6623E-01  4.6678E-01
 non-scf iterations; kpt #    11  , k= (  0.50000  0.00000  0.50000  ), band residuals:
 res:  6.74E-06  7.15E-06  2.62E-06  2.79E-06  7.08E-07  7.34E-07  4.52E-05  4.83E-05
 res:  4.56E-05  4.85E-05
 ene: -3.60E-01 -3.59E-01 -1.61E-01 -1.60E-01  1.23E-02  1.35E-02  1.29E-01  1.30E-01
 ene:  3.34E-01  3.35E-01
 vtowfk : number of one-way 3D ffts skipped in vtowfk until now =94
     eigenvalues (hartree) for   10  bands
              after    2 non-SCF iterations with    4 CG line minimizations
 -3.6036E-01 -3.5912E-01 -1.6105E-01 -1.6001E-01  1.2305E-02  1.3493E-02
  1.2934E-01  1.3049E-01  3.3404E-01  3.3465E-01
 non-scf iterations; kpt #    12  , k= (  0.25000  0.25000  0.50000  ), band residuals:
 res:  1.38E-05  1.48E-05  1.07E-05  1.15E-05  2.94E-06  3.08E-06  9.40E-05  1.01E-04
 res:  9.55E-05  1.02E-04
 ene: -3.65E-01 -3.64E-01 -1.14E-01 -1.13E-01 -5.01E-02 -4.90E-02  1.21E-01  1.22E-01
 ene:  3.71E-01  3.72E-01
 vtowfk : number of one-way 3D ffts skipped in vtowfk until now =96
     eigenvalues (hartree) for   10  bands
              after    2 non-SCF iterations with    4 CG line minimizations
 -3.6525E-01 -3.6402E-01 -1.1390E-01 -1.1280E-01 -5.0142E-02 -4.9040E-02
  1.2114E-01  1.2224E-01  3.7105E-01  3.7178E-01
 Total charge density [el/Bohr^3]
      Maximum=    5.8783E-01  at reduced coord.    0.4000    0.8000    0.0000
      Minimum=    2.8132E-03  at reduced coord.    0.0000    0.0000    0.2500
   Integrated=    1.6000E+01
  rhotov : is_hybrid_ncpp= F
  rhotov : n3xccc=       64800
 ETOT  4  -27.126769497462    -1.326E-02 5.329E-03 2.637E-01
 scprqt: <Vxc>= -3.9778265E-01 hartree

 Pulay update with  3 previous iterations:
 mixing of old trial potential : alpha(m:m-4)=   1.17     -0.144     -0.299E-01  0.210E-03
 scfcv_core: previous iteration took 00 [s]

 ITER STEP NUMBER     5
 vtorho : nnsclo_now=1, note that nnsclo,dbl_nnsclo,istep=0 0 5
 non-scf iterations; kpt #     1  , k= (  0.00000  0.00000  0.00000  ), band residuals:
 res:  1.09E-06  9.20E-07  1.80E-06  1.03E-06  7.73E-07  7.98E-07  7.68E-07  7.90E-07
 res:  4.44E-07  2.21E-04
 ene: -4.86E-01 -4.71E-01 -7.67E-02  1.64E-02  1.14E-01  1.14E-01  1.16E-01  1.16E-01
 ene:  3.54E-01  5.47E-01
 vtowfk : number of one-way 3D ffts skipped in vtowfk until now =98
     eigenvalues (hartree) for   10  bands
              after    2 non-SCF iterations with    4 CG line minimizations
 -4.8604E-01 -4.7147E-01 -7.6659E-02  1.6402E-02  1.1363E-01  1.1363E-01
  1.1564E-01  1.1564E-01  3.5362E-01  5.4679E-01
 non-scf iterations; kpt #     2  , k= (  0.25000  0.00000  0.00000  ), band residuals:
 res:  1.16E-06  1.01E-06  8.14E-07  8.13E-07  8.19E-07  7.98E-07  7.98E-07  1.10E-06
 res:  1.16E-06  4.92E-04
 ene: -4.42E-01 -4.29E-01 -2.34E-02 -2.01E-02 -1.55E-02  5.30E-02  5.59E-02  6.94E-02
 ene:  4.20E-01  4.87E-01
 vtowfk : number of one-way 3D ffts skipped in vtowfk until now =100
     eigenvalues (hartree) for   10  bands
              after    2 non-SCF iterations with    4 CG line minimizations
 -4.4174E-01 -4.2924E-01 -2.3377E-02 -2.0114E-02 -1.5492E-02  5.3050E-02
  5.5903E-02  6.9365E-02  4.2027E-01  4.8671E-01
 non-scf iterations; kpt #     3  , k= (  0.50000  0.00000  0.00000  ), band residuals:
 res:  9.83E-07  9.66E-07  5.04E-07  4.84E-07  7.62E-07  7.61E-07  1.34E-06  1.27E-06
 res:  6.38E-08  7.17E-07
 ene: -3.64E-01 -3.60E-01 -1.64E-01 -1.61E-01  9.05E-03  1.23E-02  1.04E-01  1.49E-01
 ene:  3.12E-01  3.72E-01
 vtowfk : number of one-way 3D ffts skipped in vtowfk until now =102
     eigenvalues (hartree) for   10  bands
              after    2 non-SCF iterations with    4 CG line minimizations
 -3.6359E-01 -3.6010E-01 -1.6395E-01 -1.6106E-01  9.0482E-03  1.2280E-02
  1.0400E-01  1.4883E-01  3.1194E-01  3.7199E-01
 non-scf iterations; kpt #     4  , k= (  0.25000  0.25000  0.00000  ), band residuals:
 res:  1.06E-06  1.05E-06  5.47E-07  4.90E-07  5.52E-07  5.44E-07  1.39E-06  1.37E-06
 res:  2.56E-07  9.83E-07
 ene: -3.70E-01 -3.63E-01 -1.16E-01 -1.15E-01 -5.27E-02 -5.05E-02  9.08E-02  1.49E-01
 ene:  3.62E-01  3.89E-01
 vtowfk : number of one-way 3D ffts skipped in vtowfk until now =104
     eigenvalues (hartree) for   10  bands
              after    2 non-SCF iterations with    4 CG line minimizations
 -3.7027E-01 -3.6307E-01 -1.1638E-01 -1.1458E-01 -5.2698E-02 -5.0535E-02
  9.0818E-02  1.4855E-01  3.6217E-01  3.8900E-01
 non-scf iterations; kpt #     5  , k= (  0.00000  0.00000  0.25000  ), band residuals:
 res:  1.14E-06  9.90E-07  1.20E-06  1.01E-06  5.83E-07  5.85E-07  5.78E-07  5.77E-07
 res:  7.24E-07  7.12E-06
 ene: -4.84E-01 -4.74E-01 -6.55E-02 -8.05E-04  1.14E-01  1.14E-01  1.15E-01  1.15E-01
 ene:  3.82E-01  5.16E-01
 vtowfk : number of one-way 3D ffts skipped in vtowfk until now =106
     eigenvalues (hartree) for   10  bands
              after    2 non-SCF iterations with    4 CG line minimizations
 -4.8406E-01 -4.7376E-01 -6.5452E-02 -8.0514E-04  1.1386E-01  1.1386E-01
  1.1540E-01  1.1540E-01  3.8234E-01  5.1613E-01
 non-scf iterations; kpt #     6  , k= (  0.25000  0.00000  0.25000  ), band residuals:
 res:  1.24E-06  9.81E-07  8.41E-07  8.39E-07  9.22E-07  6.90E-07  1.49E-06  6.87E-07
 res:  2.02E-06  2.50E-03
 ene: -4.40E-01 -4.31E-01 -2.40E-02 -2.10E-02 -3.84E-03  5.34E-02  5.46E-02  5.55E-02
 ene:  4.36E-01  4.95E-01
 vtowfk : number of one-way 3D ffts skipped in vtowfk until now =108
     eigenvalues (hartree) for   10  bands
              after    2 non-SCF iterations with    4 CG line minimizations
 -4.4002E-01 -4.3118E-01 -2.4048E-02 -2.0953E-02 -3.8386E-03  5.3431E-02
  5.4596E-02  5.5511E-02  4.3629E-01  4.9523E-01
 non-scf iterations; kpt #     7  , k= (  0.50000  0.00000  0.25000  ), band residuals:
 res:  8.92E-07  8.66E-07  4.63E-07  4.40E-07  6.79E-07  6.77E-07  1.30E-06  1.23E-06
 res:  1.17E-07  6.09E-07
 ene: -3.63E-01 -3.61E-01 -1.64E-01 -1.62E-01  9.49E-03  1.18E-02  1.11E-01  1.43E-01
 ene:  3.15E-01  3.57E-01
 vtowfk : number of one-way 3D ffts skipped in vtowfk until now =110
     eigenvalues (hartree) for   10  bands
              after    2 non-SCF iterations with    4 CG line minimizations
 -3.6310E-01 -3.6056E-01 -1.6375E-01 -1.6167E-01  9.4931E-03  1.1827E-02
  1.1097E-01  1.4315E-01  3.1512E-01  3.5743E-01
 non-scf iterations; kpt #     8  , k= (  0.25000  0.25000  0.25000  ), band residuals:
 res:  1.05E-06  1.02E-06  4.42E-07  3.77E-07  4.64E-07  4.47E-07  1.38E-06  1.36E-06
 res:  4.09E-07  9.05E-07
 ene: -3.69E-01 -3.64E-01 -1.16E-01 -1.15E-01 -5.26E-02 -5.10E-02  9.91E-02  1.40E-01
 ene:  3.62E-01  3.82E-01
 vtowfk : number of one-way 3D ffts skipped in vtowfk until now =112
     eigenvalues (hartree) for   10  bands
              after    2 non-SCF iterations with    4 CG line minimizations
 -3.6926E-01 -3.6414E-01 -1.1622E-01 -1.1491E-01 -5.2567E-02 -5.0998E-02
  9.9055E-02  1.3999E-01  3.6168E-01  3.8180E-01
 non-scf iterations; kpt #     9  , k= (  0.00000  0.00000  0.50000  ), band residuals:
 res:  6.45E-07  1.58E-08  1.15E-06  7.77E-08  1.82E-08  1.82E-08  7.26E-09  7.27E-09
 res:  7.40E-07  2.28E-06
 ene: -4.79E-01 -4.79E-01 -3.61E-02 -3.57E-02  1.14E-01  1.14E-01  1.15E-01  1.15E-01
 ene:  4.49E-01  4.49E-01
 vtowfk : number of one-way 3D ffts skipped in vtowfk until now =114
     eigenvalues (hartree) for   10  bands
              after    2 non-SCF iterations with    4 CG line minimizations
 -4.7938E-01 -4.7875E-01 -3.6088E-02 -3.5673E-02  1.1421E-01  1.1421E-01
  1.1505E-01  1.1505E-01  4.4853E-01  4.4865E-01
 non-scf iterations; kpt #    10  , k= (  0.25000  0.00000  0.50000  ), band residuals:
 res:  3.65E-07  1.65E-08  2.38E-07  9.41E-08  1.67E-06  1.64E-07  1.00E-08  3.23E-09
 res:  6.53E-06  7.18E-07
 ene: -4.36E-01 -4.35E-01 -2.31E-02 -2.25E-02  2.33E-02  2.37E-02  5.41E-02  5.48E-02
 ene:  4.63E-01  4.64E-01
 vtowfk : number of one-way 3D ffts skipped in vtowfk until now =116
     eigenvalues (hartree) for   10  bands
              after    2 non-SCF iterations with    4 CG line minimizations
 -4.3605E-01 -4.3537E-01 -2.3109E-02 -2.2490E-02  2.3278E-02  2.3740E-02
  5.4107E-02  5.4830E-02  4.6330E-01  4.6373E-01
 non-scf iterations; kpt #    11  , k= (  0.50000  0.00000  0.50000  ), band residuals:
 res:  6.13E-08  4.87E-09  5.85E-08  4.31E-09  8.41E-09  1.76E-09  4.87E-07  4.19E-08
 res:  4.65E-07  4.71E-08
 ene: -3.62E-01 -3.61E-01 -1.63E-01 -1.63E-01  1.03E-02  1.10E-02  1.27E-01  1.28E-01
 ene:  3.31E-01  3.31E-01
 vtowfk : number of one-way 3D ffts skipped in vtowfk until now =118
     eigenvalues (hartree) for   10  bands
              after    2 non-SCF iterations with    4 CG line minimizations
 -3.6223E-01 -3.6141E-01 -1.6312E-01 -1.6270E-01  1.0323E-02  1.0989E-02
  1.2721E-01  1.2802E-01  3.3105E-01  3.3110E-01
 non-scf iterations; kpt #    12  , k= (  0.25000  0.25000  0.50000  ), band residuals:
 res:  1.23E-07  6.77E-09  9.46E-08  7.15E-09  5.02E-08  9.84E-09  9.60E-07  5.21E-08
 res:  9.93E-07  4.65E-08
 ene: -3.67E-01 -3.66E-01 -1.16E-01 -1.15E-01 -5.22E-02 -5.17E-02  1.19E-01  1.20E-01
 ene:  3.68E-01  3.68E-01
 vtowfk : number of one-way 3D ffts skipped in vtowfk until now =120
     eigenvalues (hartree) for   10  bands
              after    2 non-SCF iterations with    4 CG line minimizations
 -3.6713E-01 -3.6633E-01 -1.1590E-01 -1.1537E-01 -5.2205E-02 -5.1685E-02
  1.1895E-01  1.1969E-01  3.6822E-01  3.6831E-01
 Total charge density [el/Bohr^3]
      Maximum=    5.8730E-01  at reduced coord.    0.8000    0.4000    0.5000
      Minimum=    2.8357E-03  at reduced coord.    0.0000    0.0000    0.2500
   Integrated=    1.6000E+01
  rhotov : is_hybrid_ncpp= F
  rhotov : n3xccc=       64800
 ETOT  5  -27.126806885261    -3.739E-05 2.496E-03 4.587E-02
 scprqt: <Vxc>= -3.9794252E-01 hartree

 Pulay update with  4 previous iterations:
 mixing of old trial potential : alpha(m:m-4)=  0.558      0.535     -0.751E-01 -0.176E-01 -0.505E-03
 scfcv_core: previous iteration took 00 [s]

 ITER STEP NUMBER     6
 vtorho : nnsclo_now=1, note that nnsclo,dbl_nnsclo,istep=0 0 6
 non-scf iterations; kpt #     1  , k= (  0.00000  0.00000  0.00000  ), band residuals:
 res:  1.73E-07  2.38E-07  9.46E-08  3.15E-07  2.46E-07  2.46E-07  2.46E-07  2.46E-07
 res:  6.72E-08  7.13E-05
 ene: -4.86E-01 -4.72E-01 -7.68E-02  1.63E-02  1.14E-01  1.14E-01  1.15E-01  1.15E-01
 ene:  3.53E-01  5.46E-01
 vtowfk : number of one-way 3D ffts skipped in vtowfk until now =122
     eigenvalues (hartree) for   10  bands
              after    2 non-SCF iterations with    4 CG line minimizations
 -4.8614E-01 -4.7157E-01 -7.6804E-02  1.6284E-02  1.1363E-01  1.1363E-01
  1.1547E-01  1.1547E-01  3.5341E-01  5.4643E-01
 non-scf iterations; kpt #     2  , k= (  0.25000  0.00000  0.00000  ), band residuals:
 res:  2.08E-07  2.64E-07  1.92E-07  1.89E-07  1.87E-07  2.08E-07  2.08E-07  1.95E-07
 res:  9.86E-08  2.33E-04
 ene: -4.42E-01 -4.29E-01 -2.34E-02 -2.02E-02 -1.56E-02  5.30E-02  5.58E-02  6.92E-02
 ene:  4.20E-01  4.86E-01
 vtowfk : number of one-way 3D ffts skipped in vtowfk until now =124
     eigenvalues (hartree) for   10  bands
              after    2 non-SCF iterations with    4 CG line minimizations
 -4.4183E-01 -4.2934E-01 -2.3435E-02 -2.0229E-02 -1.5635E-02  5.3011E-02
  5.5780E-02  6.9246E-02  4.2008E-01  4.8572E-01
 non-scf iterations; kpt #     3  , k= (  0.50000  0.00000  0.00000  ), band residuals:
 res:  2.72E-07  2.70E-07  8.70E-08  8.53E-08  1.83E-07  1.83E-07  2.74E-07  3.91E-07
 res:  7.76E-09  1.26E-07
 ene: -3.64E-01 -3.60E-01 -1.64E-01 -1.61E-01  9.00E-03  1.22E-02  1.04E-01  1.49E-01
 ene:  3.12E-01  3.72E-01
 vtowfk : number of one-way 3D ffts skipped in vtowfk until now =126
     eigenvalues (hartree) for   10  bands
              after    2 non-SCF iterations with    4 CG line minimizations
 -3.6364E-01 -3.6024E-01 -1.6403E-01 -1.6116E-01  8.9978E-03  1.2168E-02
  1.0387E-01  1.4870E-01  3.1181E-01  3.7188E-01
 non-scf iterations; kpt #     4  , k= (  0.25000  0.25000  0.00000  ), band residuals:
 res:  2.72E-07  2.78E-07  1.32E-07  1.26E-07  1.19E-07  1.20E-07  2.75E-07  4.10E-07
 res:  3.84E-08  1.75E-07
 ene: -3.70E-01 -3.63E-01 -1.16E-01 -1.15E-01 -5.28E-02 -5.06E-02  9.07E-02  1.48E-01
 ene:  3.62E-01  3.89E-01
 vtowfk : number of one-way 3D ffts skipped in vtowfk until now =128
     eigenvalues (hartree) for   10  bands
              after    2 non-SCF iterations with    4 CG line minimizations
 -3.7035E-01 -3.6319E-01 -1.1644E-01 -1.1471E-01 -5.2755E-02 -5.0647E-02
  9.0682E-02  1.4842E-01  3.6206E-01  3.8889E-01
 non-scf iterations; kpt #     5  , k= (  0.00000  0.00000  0.25000  ), band residuals:
 res:  2.04E-07  2.36E-07  1.07E-07  2.38E-07  2.09E-07  2.09E-07  2.09E-07  2.09E-07
 res:  9.14E-08  7.38E-07
 ene: -4.84E-01 -4.74E-01 -6.56E-02 -9.30E-04  1.14E-01  1.14E-01  1.15E-01  1.15E-01
 ene:  3.82E-01  5.16E-01
 vtowfk : number of one-way 3D ffts skipped in vtowfk until now =130
     eigenvalues (hartree) for   10  bands
              after    2 non-SCF iterations with    4 CG line minimizations
 -4.8416E-01 -4.7387E-01 -6.5595E-02 -9.3023E-04  1.1390E-01  1.1390E-01
  1.1520E-01  1.1520E-01  3.8214E-01  5.1596E-01
 non-scf iterations; kpt #     6  , k= (  0.25000  0.00000  0.25000  ), band residuals:
 res:  2.11E-07  2.61E-07  1.91E-07  1.91E-07  2.00E-07  1.96E-07  2.23E-07  1.96E-07
 res:  2.22E-07  2.02E-03
 ene: -4.40E-01 -4.31E-01 -2.41E-02 -2.11E-02 -3.98E-03  5.34E-02  5.45E-02  5.54E-02
 ene:  4.36E-01  4.88E-01
 vtowfk : number of one-way 3D ffts skipped in vtowfk until now =132
     eigenvalues (hartree) for   10  bands
              after    2 non-SCF iterations with    4 CG line minimizations
 -4.4011E-01 -4.3129E-01 -2.4110E-02 -2.1067E-02 -3.9752E-03  5.3408E-02
  5.4472E-02  5.5371E-02  4.3611E-01  4.8829E-01
 non-scf iterations; kpt #     7  , k= (  0.50000  0.00000  0.25000  ), band residuals:
 res:  2.58E-07  2.56E-07  8.58E-08  8.48E-08  1.76E-07  1.76E-07  2.82E-07  3.64E-07
 res:  1.65E-08  9.97E-08
 ene: -3.63E-01 -3.61E-01 -1.64E-01 -1.62E-01  9.46E-03  1.17E-02  1.11E-01  1.43E-01
 ene:  3.15E-01  3.57E-01
 vtowfk : number of one-way 3D ffts skipped in vtowfk until now =134
     eigenvalues (hartree) for   10  bands
              after    2 non-SCF iterations with    4 CG line minimizations
 -3.6313E-01 -3.6073E-01 -1.6382E-01 -1.6178E-01  9.4553E-03  1.1703E-02
  1.1084E-01  1.4302E-01  3.1499E-01  3.5731E-01
 non-scf iterations; kpt #     8  , k= (  0.25000  0.25000  0.25000  ), band residuals:
 res:  2.70E-07  2.74E-07  1.21E-07  1.17E-07  1.13E-07  1.14E-07  2.84E-07  3.80E-07
 res:  5.92E-08  1.58E-07
 ene: -3.69E-01 -3.64E-01 -1.16E-01 -1.15E-01 -5.26E-02 -5.11E-02  9.89E-02  1.40E-01
 ene:  3.62E-01  3.82E-01
 vtowfk : number of one-way 3D ffts skipped in vtowfk until now =136
     eigenvalues (hartree) for   10  bands
              after    2 non-SCF iterations with    4 CG line minimizations
 -3.6933E-01 -3.6427E-01 -1.1626E-01 -1.1505E-01 -5.2612E-02 -5.1121E-02
  9.8923E-02  1.3986E-01  3.6156E-01  3.8168E-01
 non-scf iterations; kpt #     9  , k= (  0.00000  0.00000  0.50000  ), band residuals:
 res:  6.76E-08  4.48E-08  9.34E-08  5.63E-08  4.38E-09  4.37E-09  3.47E-09  3.48E-09
 res:  1.67E-07  1.67E-07
 ene: -4.79E-01 -4.79E-01 -3.61E-02 -3.59E-02  1.14E-01  1.14E-01  1.15E-01  1.15E-01
 ene:  4.48E-01  4.48E-01
 vtowfk : number of one-way 3D ffts skipped in vtowfk until now =138
     eigenvalues (hartree) for   10  bands
              after    2 non-SCF iterations with    4 CG line minimizations
 -4.7926E-01 -4.7907E-01 -3.6086E-02 -3.5946E-02  1.1443E-01  1.1443E-01
  1.1467E-01  1.1467E-01  4.4841E-01  4.4841E-01
 non-scf iterations; kpt #    10  , k= (  0.25000  0.00000  0.50000  ), band residuals:
 res:  3.82E-08  2.87E-08  3.20E-08  2.95E-08  1.68E-07  1.44E-07  1.43E-09  1.06E-09
 res:  3.09E-07  2.19E-07
 ene: -4.36E-01 -4.36E-01 -2.30E-02 -2.28E-02  2.33E-02  2.34E-02  5.43E-02  5.45E-02
 ene:  4.63E-01  4.63E-01
 vtowfk : number of one-way 3D ffts skipped in vtowfk until now =140
     eigenvalues (hartree) for   10  bands
              after    2 non-SCF iterations with    4 CG line minimizations
 -4.3591E-01 -4.3571E-01 -2.2985E-02 -2.2791E-02  2.3305E-02  2.3450E-02
  5.4279E-02  5.4496E-02  4.6331E-01  4.6342E-01
 non-scf iterations; kpt #    11  , k= (  0.50000  0.00000  0.50000  ), band residuals:
 res:  7.03E-09  5.89E-09  5.23E-09  4.74E-09  9.32E-10  7.69E-10  5.03E-08  5.54E-08
 res:  5.41E-08  4.78E-08
 ene: -3.62E-01 -3.62E-01 -1.63E-01 -1.63E-01  1.05E-02  1.07E-02  1.27E-01  1.28E-01
 ene:  3.31E-01  3.31E-01
 vtowfk : number of one-way 3D ffts skipped in vtowfk until now =142
     eigenvalues (hartree) for   10  bands
              after    2 non-SCF iterations with    4 CG line minimizations
 -3.6203E-01 -3.6180E-01 -1.6308E-01 -1.6292E-01  1.0472E-02  1.0678E-02
  1.2738E-01  1.2759E-01  3.3092E-01  3.3098E-01
 non-scf iterations; kpt #    12  , k= (  0.25000  0.25000  0.50000  ), band residuals:
 res:  1.54E-08  1.52E-08  1.34E-08  1.36E-08  4.98E-09  4.63E-09  1.01E-07  1.03E-07
 res:  1.01E-07  1.04E-07
 ene: -3.67E-01 -3.67E-01 -1.16E-01 -1.16E-01 -5.21E-02 -5.19E-02  1.19E-01  1.19E-01
 ene:  3.68E-01  3.68E-01
 vtowfk : number of one-way 3D ffts skipped in vtowfk until now =144
     eigenvalues (hartree) for   10  bands
              after    2 non-SCF iterations with    4 CG line minimizations
 -3.6694E-01 -3.6671E-01 -1.1582E-01 -1.1564E-01 -5.2119E-02 -5.1940E-02
  1.1909E-01  1.1929E-01  3.6811E-01  3.6819E-01
 Total charge density [el/Bohr^3]
      Maximum=    5.8679E-01  at reduced coord.    0.4000    0.8000    0.0000
      Minimum=    2.8372E-03  at reduced coord.    0.0000    0.0000    0.2500
   Integrated=    1.6000E+01
  rhotov : is_hybrid_ncpp= F
  rhotov : n3xccc=       64800
 ETOT  6  -27.126815673232    -8.788E-06 2.017E-03 2.802E-03
 scprqt: <Vxc>= -3.9795049E-01 hartree

 Pulay update with  5 previous iterations:
 mixing of old trial potential : alpha(m:m-4)=  0.892      0.145     -0.452E-01  0.759E-02  0.546E-03
 scfcv_core: previous iteration took 00 [s]

 ITER STEP NUMBER     7
 vtorho : nnsclo_now=1, note that nnsclo,dbl_nnsclo,istep=0 0 7
 non-scf iterations; kpt #     1  , k= (  0.00000  0.00000  0.00000  ), band residuals:
 res:  7.25E-09  8.74E-09  3.99E-09  9.24E-09  1.07E-08  1.07E-08  1.07E-08  1.07E-08
 res:  2.06E-09  4.66E-06
 ene: -4.86E-01 -4.72E-01 -7.68E-02  1.63E-02  1.14E-01  1.14E-01  1.16E-01  1.16E-01
 ene:  3.53E-01  5.46E-01
 vtowfk : number of one-way 3D ffts skipped in vtowfk until now =146
     eigenvalues (hartree) for   10  bands
              after    2 non-SCF iterations with    4 CG line minimizations
 -4.8612E-01 -4.7155E-01 -7.6806E-02  1.6299E-02  1.1368E-01  1.1368E-01
  1.1550E-01  1.1550E-01  3.5338E-01  5.4638E-01
 non-scf iterations; kpt #     2  , k= (  0.25000  0.00000  0.00000  ), band residuals:
 res:  8.14E-09  9.50E-09  7.86E-09  7.78E-09  5.70E-09  8.60E-09  8.61E-09  7.44E-09
 res:  7.90E-09  1.56E-04
 ene: -4.42E-01 -4.29E-01 -2.34E-02 -2.02E-02 -1.56E-02  5.31E-02  5.58E-02  6.93E-02
 ene:  4.20E-01  4.85E-01
 vtowfk : number of one-way 3D ffts skipped in vtowfk until now =148
     eigenvalues (hartree) for   10  bands
              after    2 non-SCF iterations with    4 CG line minimizations
 -4.4181E-01 -4.2932E-01 -2.3394E-02 -2.0195E-02 -1.5636E-02  5.3056E-02
  5.5817E-02  6.9259E-02  4.2005E-01  4.8520E-01
 non-scf iterations; kpt #     3  , k= (  0.50000  0.00000  0.00000  ), band residuals:
 res:  1.02E-08  1.02E-08  4.48E-09  4.44E-09  7.65E-09  7.67E-09  8.62E-09  1.19E-08
 res:  4.20E-10  3.53E-09
 ene: -3.64E-01 -3.60E-01 -1.64E-01 -1.61E-01  9.04E-03  1.22E-02  1.04E-01  1.49E-01
 ene:  3.12E-01  3.72E-01
 vtowfk : number of one-way 3D ffts skipped in vtowfk until now =150
     eigenvalues (hartree) for   10  bands
              after    2 non-SCF iterations with    4 CG line minimizations
 -3.6361E-01 -3.6022E-01 -1.6399E-01 -1.6112E-01  9.0424E-03  1.2207E-02
  1.0387E-01  1.4870E-01  3.1183E-01  3.7192E-01
 non-scf iterations; kpt #     4  , k= (  0.25000  0.25000  0.00000  ), band residuals:
 res:  9.88E-09  1.00E-08  6.11E-09  5.95E-09  5.60E-09  5.65E-09  8.31E-09  1.23E-08
 res:  1.38E-09  5.28E-09
 ene: -3.70E-01 -3.63E-01 -1.16E-01 -1.15E-01 -5.27E-02 -5.06E-02  9.07E-02  1.48E-01
 ene:  3.62E-01  3.89E-01
 vtowfk : number of one-way 3D ffts skipped in vtowfk until now =152
     eigenvalues (hartree) for   10  bands
              after    2 non-SCF iterations with    4 CG line minimizations
 -3.7033E-01 -3.6317E-01 -1.1640E-01 -1.1468E-01 -5.2710E-02 -5.0609E-02
  9.0681E-02  1.4843E-01  3.6210E-01  3.8892E-01
 non-scf iterations; kpt #     5  , k= (  0.00000  0.00000  0.25000  ), band residuals:
 res:  7.96E-09  8.67E-09  4.47E-09  7.67E-09  1.05E-08  1.05E-08  1.05E-08  1.05E-08
 res:  2.88E-09  5.90E-08
 ene: -4.84E-01 -4.74E-01 -6.56E-02 -9.20E-04  1.14E-01  1.14E-01  1.15E-01  1.15E-01
 ene:  3.82E-01  5.16E-01
 vtowfk : number of one-way 3D ffts skipped in vtowfk until now =154
     eigenvalues (hartree) for   10  bands
              after    2 non-SCF iterations with    4 CG line minimizations
 -4.8413E-01 -4.7384E-01 -6.5595E-02 -9.1951E-04  1.1395E-01  1.1395E-01
  1.1523E-01  1.1523E-01  3.8211E-01  5.1595E-01
 non-scf iterations; kpt #     6  , k= (  0.25000  0.00000  0.25000  ), band residuals:
 res:  8.19E-09  9.27E-09  7.74E-09  7.82E-09  6.24E-09  8.55E-09  9.74E-09  8.56E-09
 res:  3.15E-08  8.24E-04
 ene: -4.40E-01 -4.31E-01 -2.41E-02 -2.10E-02 -3.97E-03  5.35E-02  5.45E-02  5.54E-02
 ene:  4.36E-01  4.84E-01
 vtowfk : number of one-way 3D ffts skipped in vtowfk until now =156
     eigenvalues (hartree) for   10  bands
              after    2 non-SCF iterations with    4 CG line minimizations
 -4.4009E-01 -4.3126E-01 -2.4073E-02 -2.1033E-02 -3.9719E-03  5.3455E-02
  5.4482E-02  5.5407E-02  4.3608E-01  4.8448E-01
 non-scf iterations; kpt #     7  , k= (  0.50000  0.00000  0.25000  ), band residuals:
 res:  1.02E-08  1.01E-08  4.51E-09  4.48E-09  7.62E-09  7.64E-09  8.83E-09  1.11E-08
 res:  6.95E-10  2.92E-09
 ene: -3.63E-01 -3.61E-01 -1.64E-01 -1.62E-01  9.50E-03  1.17E-02  1.11E-01  1.43E-01
 ene:  3.15E-01  3.57E-01
 vtowfk : number of one-way 3D ffts skipped in vtowfk until now =158
     eigenvalues (hartree) for   10  bands
              after    2 non-SCF iterations with    4 CG line minimizations
 -3.6311E-01 -3.6071E-01 -1.6378E-01 -1.6175E-01  9.5013E-03  1.1740E-02
  1.1084E-01  1.4302E-01  3.1501E-01  3.5734E-01
 non-scf iterations; kpt #     8  , k= (  0.25000  0.25000  0.25000  ), band residuals:
 res:  9.91E-09  1.00E-08  6.03E-09  5.93E-09  5.59E-09  5.63E-09  8.63E-09  1.14E-08
 res:  2.09E-09  4.60E-09
 ene: -3.69E-01 -3.64E-01 -1.16E-01 -1.15E-01 -5.26E-02 -5.11E-02  9.89E-02  1.40E-01
 ene:  3.62E-01  3.82E-01
 vtowfk : number of one-way 3D ffts skipped in vtowfk until now =160
     eigenvalues (hartree) for   10  bands
              after    2 non-SCF iterations with    4 CG line minimizations
 -3.6931E-01 -3.6425E-01 -1.1621E-01 -1.1502E-01 -5.2566E-02 -5.1085E-02
  9.8923E-02  1.3986E-01  3.6160E-01  3.8171E-01
 non-scf iterations; kpt #     9  , k= (  0.00000  0.00000  0.50000  ), band residuals:
 res:  2.33E-09  7.38E-10  3.94E-09  9.33E-10  1.38E-10  1.38E-10  9.52E-11  9.51E-11
 res:  6.14E-09  4.89E-09
 ene: -4.79E-01 -4.79E-01 -3.60E-02 -3.60E-02  1.15E-01  1.15E-01  1.15E-01  1.15E-01
 ene:  4.48E-01  4.48E-01
 vtowfk : number of one-way 3D ffts skipped in vtowfk until now =162
     eigenvalues (hartree) for   10  bands
              after    2 non-SCF iterations with    4 CG line minimizations
 -4.7916E-01 -4.7913E-01 -3.6025E-02 -3.5999E-02  1.1457E-01  1.1457E-01
  1.1460E-01  1.1460E-01  4.4838E-01  4.4839E-01
 non-scf iterations; kpt #    10  , k= (  0.25000  0.00000  0.50000  ), band residuals:
 res:  1.20E-09  6.80E-10  1.21E-09  8.94E-10  3.86E-09  4.31E-09  7.19E-11  5.41E-11
 res:  1.88E-08  6.40E-09
 ene: -4.36E-01 -4.36E-01 -2.29E-02 -2.28E-02  2.34E-02  2.34E-02  5.44E-02  5.44E-02
 ene:  4.63E-01  4.63E-01
 vtowfk : number of one-way 3D ffts skipped in vtowfk until now =164
     eigenvalues (hartree) for   10  bands
              after    2 non-SCF iterations with    4 CG line minimizations
 -4.3580E-01 -4.3577E-01 -2.2867E-02 -2.2837E-02  2.3371E-02  2.3396E-02
  5.4412E-02  5.4444E-02  4.6335E-01  4.6337E-01
 non-scf iterations; kpt #    11  , k= (  0.50000  0.00000  0.50000  ), band residuals:
 res:  2.07E-10  1.75E-10  2.42E-10  1.99E-10  5.11E-11  4.94E-11  4.80E-10  2.34E-09
 res:  4.30E-10  2.35E-09
 ene: -3.62E-01 -3.62E-01 -1.63E-01 -1.63E-01  1.06E-02  1.06E-02  1.27E-01  1.28E-01
 ene:  3.31E-01  3.31E-01
 vtowfk : number of one-way 3D ffts skipped in vtowfk until now =166
     eigenvalues (hartree) for   10  bands
              after    2 non-SCF iterations with    4 CG line minimizations
 -3.6191E-01 -3.6188E-01 -1.6298E-01 -1.6295E-01  1.0600E-02  1.0632E-02
  1.2747E-01  1.2750E-01  3.3096E-01  3.3099E-01
 non-scf iterations; kpt #    12  , k= (  0.25000  0.25000  0.50000  ), band residuals:
 res:  3.33E-10  5.11E-10  2.75E-10  4.65E-10  2.12E-10  2.07E-10  1.20E-09  3.80E-09
 res:  1.17E-09  3.92E-09
 ene: -3.67E-01 -3.67E-01 -1.16E-01 -1.16E-01 -5.20E-02 -5.20E-02  1.19E-01  1.19E-01
 ene:  3.68E-01  3.68E-01
 vtowfk : number of one-way 3D ffts skipped in vtowfk until now =168
     eigenvalues (hartree) for   10  bands
              after    2 non-SCF iterations with    4 CG line minimizations
 -3.6682E-01 -3.6679E-01 -1.1571E-01 -1.1568E-01 -5.2003E-02 -5.1973E-02
  1.1918E-01  1.1921E-01  3.6817E-01  3.6819E-01
 Total charge density [el/Bohr^3]
      Maximum=    5.8668E-01  at reduced coord.    0.4000    0.8000    0.0000
      Minimum=    2.8382E-03  at reduced coord.    0.0000    0.0000    0.2500
   Integrated=    1.6000E+01
  rhotov : is_hybrid_ncpp= F
  rhotov : n3xccc=       64800
 ETOT  7  -27.126816077798    -4.046E-07 8.241E-04 3.947E-05
[...]
 res:  2.40E-15  1.32E-15
 ene: -4.79E-01 -4.79E-01 -3.60E-02 -3.60E-02  1.15E-01  1.15E-01  1.15E-01  1.15E-01
 ene:  4.48E-01  4.48E-01
 vtowfk : number of one-way 3D ffts skipped in vtowfk until now =258
     eigenvalues (hartree) for   10  bands
              after    2 non-SCF iterations with    4 CG line minimizations
 -4.7915E-01 -4.7915E-01 -3.6018E-02 -3.6018E-02  1.1457E-01  1.1457E-01
  1.1457E-01  1.1457E-01  4.4838E-01  4.4838E-01
 non-scf iterations; kpt #    10  , k= (  0.25000  0.00000  0.50000  ), band residuals:
 res:  5.90E-17  7.44E-17  2.25E-16  2.70E-16  5.84E-16  3.68E-16  8.06E-19  4.75E-18
 res:  2.58E-13  1.93E-13
 ene: -4.36E-01 -4.36E-01 -2.29E-02 -2.29E-02  2.34E-02  2.34E-02  5.44E-02  5.44E-02
 ene:  4.63E-01  4.63E-01
 vtowfk : number of one-way 3D ffts skipped in vtowfk until now =260
     eigenvalues (hartree) for   10  bands
              after    2 non-SCF iterations with    4 CG line minimizations
 -4.3580E-01 -4.3580E-01 -2.2864E-02 -2.2864E-02  2.3376E-02  2.3376E-02
  5.4415E-02  5.4415E-02  4.6335E-01  4.6335E-01
 non-scf iterations; kpt #    11  , k= (  0.50000  0.00000  0.50000  ), band residuals:
 res:  1.24E-17  1.96E-17  2.39E-17  3.32E-17  6.97E-19  4.93E-18  7.54E-17  3.53E-17
 res:  7.11E-17  2.75E-17
 ene: -3.62E-01 -3.62E-01 -1.63E-01 -1.63E-01  1.06E-02  1.06E-02  1.27E-01  1.27E-01
 ene:  3.31E-01  3.31E-01
 vtowfk : number of one-way 3D ffts skipped in vtowfk until now =262
     eigenvalues (hartree) for   10  bands
              after    2 non-SCF iterations with    4 CG line minimizations
 -3.6191E-01 -3.6191E-01 -1.6298E-01 -1.6298E-01  1.0603E-02  1.0603E-02
  1.2748E-01  1.2748E-01  3.3097E-01  3.3097E-01
 non-scf iterations; kpt #    12  , k= (  0.25000  0.25000  0.50000  ), band residuals:
 res:  1.87E-17  2.47E-17  1.93E-17  1.98E-17  2.15E-17  2.72E-17  1.51E-16  4.75E-17
 res:  1.17E-16  3.96E-17
 ene: -3.67E-01 -3.67E-01 -1.16E-01 -1.16E-01 -5.20E-02 -5.20E-02  1.19E-01  1.19E-01
 ene:  3.68E-01  3.68E-01
 vtowfk : number of one-way 3D ffts skipped in vtowfk until now =264
     eigenvalues (hartree) for   10  bands
              after    2 non-SCF iterations with    4 CG line minimizations
 -3.6682E-01 -3.6682E-01 -1.1570E-01 -1.1570E-01 -5.2000E-02 -5.2000E-02
  1.1918E-01  1.1918E-01  3.6818E-01  3.6818E-01
 Total charge density [el/Bohr^3]
      Maximum=    5.8668E-01  at reduced coord.    0.4000    0.8000    0.0000
      Minimum=    2.8380E-03  at reduced coord.    0.0000    0.0000    0.2500
   Integrated=    1.6000E+01
  rhotov : is_hybrid_ncpp= F
  rhotov : n3xccc=       64800
 ETOT 11  -27.126816080526     1.954E-13 1.787E-05 3.063E-13
 scprqt: <Vxc>= -3.9795338E-01 hartree

 At SCF step   11, etot is converged : 
  for the second time, diff in etot=  1.954E-13 < toldfe=  1.000E-10

 Cartesian components of stress tensor (hartree/bohr^3)
  sigma(1 1)=  8.25013670E-06  sigma(3 2)=  0.00000000E+00
  sigma(2 2)=  8.25013671E-06  sigma(3 1)=  0.00000000E+00
  sigma(3 3)= -6.93369564E-06  sigma(2 1)=  0.00000000E+00

 fftdatar_write: About to write data to: io_dir/hbn_scf_out_DEN with iomode IO_MODE_ETSF
 IO operation completed. cpu_time:       0.0 [s], walltime:       0.0 [s]
================================================================================

 ----iterations are completed or convergence reached----


 === Gap info ===
  >>>> For spin  1
   Minimum optical gap =   4.4392 [eV], located at k-point      :   0.5000  0.0000  0.0000
   Fundamental gap     =   4.4392 [eV], Top of valence bands at :   0.5000  0.0000  0.0000
                                        Bottom of conduction at :   0.5000  0.0000  0.0000
 Mean square residual over all n,k,spin=   27.450E-08; max=  17.865E-06
   0.0000  0.0000  0.0000    1  1.02627E-08 kpt; spin; max resid(k); each band:
  2.77E-15 2.96E-15 1.68E-15 2.12E-15 3.58E-15 3.58E-15 3.58E-15 3.58E-15
  2.12E-16 1.03E-08
   0.2500  0.0000  0.0000    1  1.50643E-05 kpt; spin; max resid(k); each band:
  2.85E-15 3.01E-15 3.21E-15 3.18E-15 1.76E-15 3.43E-15 3.43E-15 1.95E-15
  4.03E-14 1.51E-05
   0.5000  0.0000  0.0000    1  3.35329E-15 kpt; spin; max resid(k); each band:
  3.05E-15 3.05E-15 2.83E-15 2.83E-15 3.35E-15 3.35E-15 2.08E-15 2.21E-15
  1.29E-15 1.46E-15
   0.2500  0.2500  0.0000    1  3.08415E-15 kpt; spin; max resid(k); each band:
  3.02E-15 3.03E-15 3.00E-15 2.99E-15 3.08E-15 3.08E-15 1.99E-15 2.20E-15
  1.50E-15 1.73E-15
   0.0000  0.0000  0.2500    1  9.98374E-12 kpt; spin; max resid(k); each band:
  2.81E-15 2.93E-15 1.73E-15 2.03E-15 3.58E-15 3.58E-15 3.58E-15 3.58E-15
  3.94E-16 9.98E-12
   0.2500  0.0000  0.2500    1  1.78655E-05 kpt; spin; max resid(k); each band:
  2.86E-15 2.98E-15 3.11E-15 3.17E-15 1.91E-15 3.43E-15 1.94E-15 3.43E-15
  6.60E-13 1.79E-05
   0.5000  0.0000  0.2500    1  3.35312E-15 kpt; spin; max resid(k); each band:
  3.06E-15 3.06E-15 2.83E-15 2.83E-15 3.35E-15 3.35E-15 2.05E-15 2.15E-15
  1.25E-15 1.37E-15
   0.2500  0.2500  0.2500    1  3.08465E-15 kpt; spin; max resid(k); each band:
  3.03E-15 3.03E-15 3.00E-15 2.99E-15 3.08E-15 3.08E-15 1.97E-15 2.12E-15
  1.51E-15 1.67E-15
   0.0000  0.0000  0.5000    1  2.40475E-15 kpt; spin; max resid(k); each band:
  1.04E-16 1.28E-16 3.57E-16 3.35E-16 1.40E-18 1.44E-18 3.30E-18 3.30E-18
  2.40E-15 1.32E-15
   0.2500  0.0000  0.5000    1  2.58347E-13 kpt; spin; max resid(k); each band:
  5.90E-17 7.44E-17 2.25E-16 2.70E-16 5.84E-16 3.68E-16 8.06E-19 4.75E-18
  2.58E-13 1.93E-13
   0.5000  0.0000  0.5000    1  7.54033E-17 kpt; spin; max resid(k); each band:
  1.24E-17 1.96E-17 2.39E-17 3.32E-17 6.97E-19 4.93E-18 7.54E-17 3.53E-17
  7.11E-17 2.75E-17
   0.2500  0.2500  0.5000    1  1.50928E-16 kpt; spin; max resid(k); each band:
  1.87E-17 2.47E-17 1.93E-17 1.98E-17 2.15E-17 2.72E-17 1.51E-16 4.75E-17
  1.17E-16 3.96E-17
in cg_ncwrite with path: io_dir/hbn_scf_out_WFK.nc
same layout Writing WFK file: io_dir/hbn_scf_out_WFK.nc, with iomode: IO_MODE_ETSF, single writer: T
Using netcdf library without MPI-IO support
 individual ncwrite, cpu:     0.02, wall:     0.02
 prteigrs : about to open file io_dir/hbn_scf_out_EIG
 Fermi (or HOMO) energy (hartree) =   0.14869   Average Vxc (hartree)=  -0.39795
 Eigenvalues (hartree) for nkpt=  12  k points:
 kpt#   1, nband= 10, wtk=  0.01563, kpt=  0.0000  0.0000  0.0000 (reduced coord)
  -0.48613   -0.47156   -0.07681    0.01629    0.11367    0.11367    0.11549    0.11549
   0.35338    0.54636
 kpt#   2, nband= 10, wtk=  0.09375, kpt=  0.2500  0.0000  0.0000 (reduced coord)
  -0.44182   -0.42933   -0.02341   -0.02021   -0.01564    0.05304    0.05580    0.06925
   0.42004    0.48454
 kpt#   3, nband= 10, wtk=  0.04688, kpt=  0.5000  0.0000  0.0000 (reduced coord)
  -0.36363   -0.36024   -0.16400   -0.16113    0.00903    0.01219    0.10386    0.14869
   0.31183    0.37191
 kpt#   4, nband= 10, wtk=  0.09375, kpt=  0.2500  0.2500  0.0000 (reduced coord)
  -0.37034   -0.36318   -0.11641   -0.11469   -0.05272   -0.05062    0.09067    0.14842
   0.36209    0.38891
 kpt#   5, nband= 10, wtk=  0.03125, kpt=  0.0000  0.0000  0.2500 (reduced coord)
  -0.48414   -0.47385   -0.06560   -0.00093    0.11393    0.11393    0.11522    0.11522
   0.38211    0.51594
 kpt#   6, nband= 10, wtk=  0.18750, kpt=  0.2500  0.0000  0.2500 (reduced coord)
  -0.44010   -0.43128   -0.02408   -0.02105   -0.00398    0.05344    0.05447    0.05539
   0.43608    0.48188
 kpt#   7, nband= 10, wtk=  0.09375, kpt=  0.5000  0.0000  0.2500 (reduced coord)
  -0.36312   -0.36072   -0.16379   -0.16176    0.00949    0.01173    0.11084    0.14301
   0.31501    0.35734
 kpt#   8, nband= 10, wtk=  0.18750, kpt=  0.2500  0.2500  0.2500 (reduced coord)
  -0.36932   -0.36426   -0.11622   -0.11503   -0.05258   -0.05110    0.09892    0.13985
   0.36160    0.38171
 kpt#   9, nband= 10, wtk=  0.01563, kpt=  0.0000  0.0000  0.5000 (reduced coord)
  -0.47915   -0.47915   -0.03602   -0.03602    0.11457    0.11457    0.11457    0.11457
   0.44838    0.44838
 kpt#  10, nband= 10, wtk=  0.09375, kpt=  0.2500  0.0000  0.5000 (reduced coord)
  -0.43580   -0.43580   -0.02286   -0.02286    0.02338    0.02338    0.05441    0.05441
   0.46335    0.46335
 kpt#  11, nband= 10, wtk=  0.04688, kpt=  0.5000  0.0000  0.5000 (reduced coord)
  -0.36191   -0.36191   -0.16298   -0.16298    0.01060    0.01060    0.12748    0.12748
   0.33097    0.33097
 kpt#  12, nband= 10, wtk=  0.09375, kpt=  0.2500  0.2500  0.5000 (reduced coord)
  -0.36682   -0.36682   -0.11570   -0.11570   -0.05200   -0.05200    0.11918    0.11918
   0.36818    0.36818
 Total charge density [el/Bohr^3]
      Maximum=    5.8668E-01  at reduced coord.    0.4000    0.8000    0.0000
 Next maximum=    5.8668E-01  at reduced coord.    0.4000    0.6000    0.0000
      Minimum=    2.8380E-03  at reduced coord.    0.0000    0.0000    0.2500
 Next minimum=    2.8380E-03  at reduced coord.    0.0000    0.0000    0.7500
   Integrated=    1.6000E+01

 Cartesian components of stress tensor (hartree/bohr^3)
  sigma(1 1)=  8.25013670E-06  sigma(3 2)=  0.00000000E+00
  sigma(2 2)=  8.25013671E-06  sigma(3 1)=  0.00000000E+00
  sigma(3 3)= -6.93369564E-06  sigma(2 1)=  0.00000000E+00

-Cartesian components of stress tensor (GPa)         [Pressure= -9.3819E-02 GPa]
- sigma(1 1)=  2.42727361E-01  sigma(3 2)=  0.00000000E+00
- sigma(2 2)=  2.42727361E-01  sigma(3 1)=  0.00000000E+00
- sigma(3 3)= -2.03996334E-01  sigma(2 1)=  0.00000000E+00

== END DATASET(S) ==============================================================
================================================================================
  
 -outvars: echo values of variables after computation  --------
 
 These variables are accessible in NetCDF format (io_dir/hbn_scf_out_OUT.nc)

-          iomode           3
            acell      4.7163728000E+00  4.7163728000E+00  1.2175836200E+01 Bohr
              amu      1.08110000E+01  1.40067400E+01
           diemac      4.50000000E+00
             ecut      4.00000000E+01 Hartree
           etotal     -2.7126816081E+01
            fcart     -1.1418288322E-28 -6.5923518363E-29 -0.0000000000E+00
                      -3.4254864965E-28 -1.9777055509E-28 -0.0000000000E+00
                       1.1418288322E-28  6.5923518363E-29 -0.0000000000E+00
                       3.4254864965E-28  1.9777055509E-28 -0.0000000000E+00
-          fftalg         112
           istwfk        2    0    3    0    0    0    0    0    4    0
                         5    0
              kpt      0.00000000E+00  0.00000000E+00  0.00000000E+00
                       2.50000000E-01  0.00000000E+00  0.00000000E+00
                       5.00000000E-01  0.00000000E+00  0.00000000E+00
                       2.50000000E-01  2.50000000E-01  0.00000000E+00
                       0.00000000E+00  0.00000000E+00  2.50000000E-01
                       2.50000000E-01  0.00000000E+00  2.50000000E-01
                       5.00000000E-01  0.00000000E+00  2.50000000E-01
                       2.50000000E-01  2.50000000E-01  2.50000000E-01
                       0.00000000E+00  0.00000000E+00  5.00000000E-01
                       2.50000000E-01  0.00000000E+00  5.00000000E-01
                       5.00000000E-01  0.00000000E+00  5.00000000E-01
                       2.50000000E-01  2.50000000E-01  5.00000000E-01
         kptrlatt        4    0    0      0    4    0      0    0    4
          kptrlen      1.88654912E+01
P           mkmem          12
            natom           4
            nband          10
            ngfft          30      30      72
             nkpt          12
            nstep         100
             nsym          12
           ntypat           2
              occ      2.000000  2.000000  2.000000  2.000000  2.000000  2.000000
                       2.000000  2.000000  0.000000  0.000000
            rprim      1.0000000000E+00  0.0000000000E+00  0.0000000000E+00
                      -5.0000000000E-01  8.6602540378E-01  0.0000000000E+00
                       0.0000000000E+00  0.0000000000E+00  1.0000000000E+00
          spgroup         194
           strten      8.2501366973E-06  8.2501367088E-06 -6.9336956411E-06
                       0.0000000000E+00  0.0000000000E+00  0.0000000000E+00
        symmorphi           0
           symrel      1  0  0   0  1  0   0  0  1       0 -1  0  -1  0  0   0  0 -1
                      -1 -1  0   1  0  0   0  0 -1      -1  0  0   1  1  0   0  0  1
                       0  1  0  -1 -1  0   0  0  1       1  1  0   0 -1  0   0  0 -1
                       1  0  0   0  1  0   0  0 -1       0 -1  0  -1  0  0   0  0  1
                      -1 -1  0   1  0  0   0  0  1      -1  0  0   1  1  0   0  0 -1
                       0  1  0  -1 -1  0   0  0 -1       1  1  0   0 -1  0   0  0  1
            tnons      0.0000000  0.0000000  0.0000000    -0.0000000 -0.0000000  0.0000000
                       0.0000000 -0.0000000  0.0000000     0.0000000  0.0000000  0.0000000
                      -0.0000000 -0.0000000  0.0000000     0.0000000 -0.0000000  0.0000000
                       0.0000000  0.0000000  0.0000000    -0.0000000 -0.0000000  0.0000000
                       0.0000000 -0.0000000  0.0000000     0.0000000  0.0000000  0.0000000
                      -0.0000000 -0.0000000  0.0000000     0.0000000 -0.0000000  0.0000000
           toldfe      1.00000000E-10 Hartree
            typat      1  2  1  2
              wtk        0.01563    0.09375    0.04688    0.09375    0.03125    0.18750
                         0.09375    0.18750    0.01563    0.09375    0.04688    0.09375
           xangst      1.2478984965E+00  7.2047453285E-01  0.0000000000E+00
                      -1.2478984965E+00 -7.2047453288E-01  0.0000000000E+00
                      -1.2478984965E+00 -7.2047453288E-01  3.2215875063E+00
                       1.2478984965E+00  7.2047453285E-01  3.2215875063E+00
            xcart      2.3581864000E+00  1.3614995528E+00  0.0000000000E+00
                      -2.3581864000E+00 -1.3614995529E+00  0.0000000000E+00
                      -2.3581864000E+00 -1.3614995529E+00  6.0879181000E+00
                       2.3581864000E+00  1.3614995528E+00  6.0879181000E+00
             xred      6.6666666666E-01  3.3333333333E-01  0.0000000000E+00
                      -6.6666666667E-01 -3.3333333334E-01  0.0000000000E+00
                      -6.6666666667E-01 -3.3333333334E-01  5.0000000000E-01
                       6.6666666666E-01  3.3333333333E-01  5.0000000000E-01
            znucl        5.00000    7.00000

================================================================================
  

================================================================================

 Suggested references for the acknowledgment of ABINIT usage.

 The users of ABINIT have little formal obligations with respect to the ABINIT group
 (those specified in the GNU General Public License, http://www.gnu.org/copyleft/gpl.txt).
 However, it is common practice in the scientific literature,
 to acknowledge the efforts of people that have made the research possible.
 In this spirit, please find below suggested citations of work written by ABINIT developers,
 corresponding to implementations inside of ABINIT that you have used in the present run.
 Note also that it will be of great value to readers of publications presenting these results,
 to read papers enabling them to understand the theoretical formalism and details
 of the ABINIT implementation.
 For information on why they are suggested, see also https://docs.abinit.org/theory/acknowledgments.
-
- [1] Specification of an extensible and portable file format for electronic structure and crystallographic data
- X. Gonze, C.-O. Almbladh, A. Cucca, D. Caliste, C. Freysoldt, M. Marques, V. Olevano, Y. Pouillon, M.J. Verstraete,
- Comput. Material Science 43, 1056 (2008).
- Comment : to be cited in case the ETSF_IO file format is used, i.e. iomode=3.
- DOI and bibtex : see https://docs.abinit.org/theory/bibliography/#gonze2008
-
- [2] Recent developments in the ABINIT software package.
- Computer Phys. Comm. 205, 106 (2016).
- X.Gonze, F.Jollet, F.Abreu Araujo, D.Adams, B.Amadon, T.Applencourt,
- C.Audouze, J.-M.Beuken, J.Bieder, A.Bokhanchuk, E.Bousquet, F.Bruneval
- D.Caliste, M.Cote, F.Dahm, F.Da Pieve, M.Delaveau, M.Di Gennaro,
- B.Dorado, C.Espejo, G.Geneste, L.Genovese, A.Gerossier, M.Giantomassi,
- Y.Gillet, D.R.Hamann, L.He, G.Jomard, J.Laflamme Janssen, S.Le Roux,
- A.Levitt, A.Lherbier, F.Liu, I.Lukacevic, A.Martin, C.Martins,
- M.J.T.Oliveira, S.Ponce, Y.Pouillon, T.Rangel, G.-M.Rignanese,
- A.H.Romero, B.Rousseau, O.Rubel, A.A.Shukri, M.Stankovski, M.Torrent,
- M.J.Van Setten, B.Van Troeye, M.J.Verstraete, D.Waroquier, J.Wiktor,
- B.Xu, A.Zhou, J.W.Zwanziger.
- Comment : the fourth generic paper describing the ABINIT project.
- Note that a version of this paper, that is not formatted for Computer Phys. Comm. 
- is available at https://www.abinit.org/about/ABINIT16.pdf .
- The licence allows the authors to put it on the Web.
- DOI and bibtex : see https://docs.abinit.org/theory/bibliography/#gonze2016
-
- [3] ABINIT : First-principles approach of materials and nanosystem properties.
- Computer Phys. Comm. 180, 2582-2615 (2009).
- X. Gonze, B. Amadon, P.-M. Anglade, J.-M. Beuken, F. Bottin, P. Boulanger, F. Bruneval,
- D. Caliste, R. Caracas, M. Cote, T. Deutsch, L. Genovese, Ph. Ghosez, M. Giantomassi
- S. Goedecker, D.R. Hamann, P. Hermet, F. Jollet, G. Jomard, S. Leroux, M. Mancini, S. Mazevet,
- M.J.T. Oliveira, G. Onida, Y. Pouillon, T. Rangel, G.-M. Rignanese, D. Sangalli, R. Shaltaf,
- M. Torrent, M.J. Verstraete, G. Zerah, J.W. Zwanziger
- Comment : the third generic paper describing the ABINIT project.
- Note that a version of this paper, that is not formatted for Computer Phys. Comm. 
- is available at https://www.abinit.org/about/ABINIT_CPC_v10.pdf .
- The licence allows the authors to put it on the Web.
- DOI and bibtex : see https://docs.abinit.org/theory/bibliography/#gonze2009
-
- [4] A brief introduction to the ABINIT software package.
- Z. Kristallogr. 220, 558-562 (2005).
- X. Gonze, G.-M. Rignanese, M. Verstraete, J.-M. Beuken, Y. Pouillon, R. Caracas, F. Jollet,
- M. Torrent, G. Zerah, M. Mikami, Ph. Ghosez, M. Veithen, J.-Y. Raty, V. Olevano, F. Bruneval,
- L. Reining, R. Godby, G. Onida, D.R. Hamann, and D.C. Allan.
- Comment : the second generic paper describing the ABINIT project. Note that this paper
- should be cited especially if you are using the GW part of ABINIT, as several authors
- of this part are not in the list of authors of the first or third paper.
- The .pdf of the latter paper is available at https://www.abinit.org/about/zfk_0505-06_558-562.pdf.
- Note that it should not redistributed (Copyright by Oldenburg Wissenshaftverlag,
- the licence allows the authors to put it on the Web).
- DOI and bibtex : see https://docs.abinit.org/theory/bibliography/#gonze2005
-
- And optionally:
-
- [5] First-principles computation of material properties : the ABINIT software project. 
- X. Gonze, J.-M. Beuken, R. Caracas, F. Detraux, M. Fuchs, G.-M. Rignanese, L. Sindic,
- M. Verstraete, G. Zerah, F. Jollet, M. Torrent, A. Roy, M. Mikami, Ph. Ghosez, J.-Y. Raty, D.C. Allan.
- Computational Materials Science 25, 478-492 (2002). http://dx.doi.org/10.1016/S0927-0256(02)00325-7
- Comment : the original paper describing the ABINIT project.
- DOI and bibtex : see https://docs.abinit.org/theory/bibliography/#gonze2002

 Calculation completed.
.Delivered   0 WARNINGs and   1 COMMENTs to log file.

--- !FinalSummary
program: abinit
version: 8.10.3
start_datetime: Tue Oct 13 10:29:22 2020
end_datetime: Tue Oct 13 10:29:30 2020
overall_cpu_time:           8.2
overall_wall_time:           8.2
exit_requested_by_user: no 
timelimit: 0
pseudos: 
    B   : 689addaab186c9518e877e54a429c10d
    N   : b32922f6e50fd55b78b426e2f84d8459
usepaw: 0
mpi_procs: 1
omp_threads: 1
num_warnings: 0
num_comments: 1
...
