
     Program PWSCF v.5.1 starts on 28Jul2018 at 15:16:37 

     This program is part of the open-source Quantum ESPRESSO suite
     for quantum simulation of materials; please cite
         "P. Giannozzi et al., J. Phys.:Condens. Matter 21 395502 (2009);
          URL http://www.quantum-espresso.org", 
     in publications or presentations arising from this work. More details at
     http://www.quantum-espresso.org/quote

     Parallel version (MPI), running on     1 processors
     Waiting for input...
     Reading input from standard input
     Message from routine read_cards :
     DEPRECATED: no units specified in ATOMIC_POSITIONS card
     Message from routine read_cards :
     ATOMIC_POSITIONS: units set to alat

     Current dimensions of program PWSCF are:
     Max number of different atomic species (ntypx) = 10
     Max number of k-points (npk) =  40000
     Max angular momentum in pseudopotentials (lmaxx) =  3

     Atomic positions and unit cell read from directory:
     ./Fe_nscf_e45_k4s3_nb10.save/


     Subspace diagonalization in iterative solution of the eigenvalue problem:
     a serial algorithm will be used


     G-vector sticks info
     --------------------
     sticks:   dense  smooth     PW     G-vecs:    dense   smooth      PW
     Sum         291     291     95                 3151     3151     603

     Generating pointlists ...
     new r_m :   0.3572 (alat units)  1.9362 (a.u.) for type    1


     bravais-lattice index     =            3
     lattice parameter (alat)  =       5.4200  a.u.
     unit-cell volume          =      79.6100 (a.u.)^3
     number of atoms/cell      =            1
     number of atomic types    =            1
     number of electrons       =         8.00
     number of Kohn-Sham states=           10
     kinetic-energy cutoff     =      45.0000  Ry
     charge density cutoff     =     180.0000  Ry
     Exchange-correlation      = PBE ( 1  4  3  4 0)

     celldm(1)=   5.420000  celldm(2)=   0.000000  celldm(3)=   0.000000
     celldm(4)=   0.000000  celldm(5)=   0.000000  celldm(6)=   0.000000

     crystal axes: (cart. coord. in units of alat)
               a(1) = (   0.500000   0.500000   0.500000 )  
               a(2) = (  -0.500000   0.500000   0.500000 )  
               a(3) = (  -0.500000  -0.500000   0.500000 )  

     reciprocal axes: (cart. coord. in units 2 pi/alat)
               b(1) = (  1.000000  0.000000  1.000000 )  
               b(2) = ( -1.000000  1.000000  0.000000 )  
               b(3) = (  0.000000 -1.000000  1.000000 )  


     PseudoPot. # 1 for Fe read from file:
     ./Fe.rel-pbe-n-nc.UPF
     MD5 check sum: 94258d60e67ccf79570366bad73e55f4
     Pseudo is Norm-conserving + core correction, Zval =  8.0
     Generated using "atomic" code by A. Dal Corso  v.5.0.2 svn rev. 10042M
     Using radial grid of 1191 points,  2 beta functions with: 
                l(1) =   1
                l(2) =   2

     atomic species   valence    mass     pseudopotential
        Fe             8.00    55.84500     Fe( 1.00)

     Starting magnetic structure 
     atomic species   magnetization
        Fe           1.000

     48 Sym. Ops., with inversion, found


                                    s                        frac. trans.

      isym =  1     identity                                     

 cryst.   s( 1) = (     1          0          0      )
                  (     0          1          0      )
                  (     0          0          1      )

 cart.    s( 1) = (  1.0000000  0.0000000  0.0000000 )
                  (  0.0000000  1.0000000  0.0000000 )
                  (  0.0000000  0.0000000  1.0000000 )


      isym =  2     180 deg rotation - cart. axis [0,0,1]        

 cryst.   s( 2) = (     0          0          1      )
                  (     1         -1          1      )
                  (     1          0          0      )

 cart.    s( 2) = ( -1.0000000  0.0000000  0.0000000 )
                  (  0.0000000 -1.0000000  0.0000000 )
                  (  0.0000000  0.0000000  1.0000000 )


      isym =  3     180 deg rotation - cart. axis [0,1,0]        

 cryst.   s( 3) = (    -1          1         -1      )
                  (     0          0         -1      )
                  (     0         -1          0      )

 cart.    s( 3) = ( -1.0000000  0.0000000  0.0000000 )
                  (  0.0000000  1.0000000  0.0000000 )
                  (  0.0000000  0.0000000 -1.0000000 )


      isym =  4     180 deg rotation - cart. axis [1,0,0]        

 cryst.   s( 4) = (     0         -1          0      )
                  (    -1          0          0      )
                  (    -1          1         -1      )

 cart.    s( 4) = (  1.0000000  0.0000000  0.0000000 )
                  (  0.0000000 -1.0000000  0.0000000 )
                  (  0.0000000  0.0000000 -1.0000000 )


      isym =  5     180 deg rotation - cart. axis [1,1,0]        

 cryst.   s( 5) = (     0          0         -1      )
                  (     0         -1          0      )
                  (    -1          0          0      )

 cart.    s( 5) = (  0.0000000  1.0000000  0.0000000 )
                  (  1.0000000  0.0000000  0.0000000 )
                  (  0.0000000  0.0000000 -1.0000000 )


      isym =  6     180 deg rotation - cart. axis [1,-1,0]       

 cryst.   s( 6) = (    -1          0          0      )
                  (    -1          1         -1      )
                  (     0          0         -1      )

 cart.    s( 6) = (  0.0000000 -1.0000000  0.0000000 )
                  ( -1.0000000  0.0000000  0.0000000 )
                  (  0.0000000  0.0000000 -1.0000000 )


      isym =  7      90 deg rotation - cart. axis [0,0,-1]       

 cryst.   s( 7) = (     1         -1          1      )
                  (     1          0          0      )
                  (     0          1          0      )

 cart.    s( 7) = (  0.0000000  1.0000000  0.0000000 )
                  ( -1.0000000  0.0000000  0.0000000 )
                  (  0.0000000  0.0000000  1.0000000 )


      isym =  8      90 deg rotation - cart. axis [0,0,1]        

 cryst.   s( 8) = (     0          1          0      )
                  (     0          0          1      )
                  (     1         -1          1      )

 cart.    s( 8) = (  0.0000000 -1.0000000  0.0000000 )
                  (  1.0000000  0.0000000  0.0000000 )
                  (  0.0000000  0.0000000  1.0000000 )


      isym =  9     180 deg rotation - cart. axis [1,0,1]        

 cryst.   s( 9) = (     1         -1          1      )
                  (     0         -1          0      )
                  (     0          0         -1      )

 cart.    s( 9) = (  0.0000000  0.0000000  1.0000000 )
                  (  0.0000000 -1.0000000  0.0000000 )
                  (  1.0000000  0.0000000  0.0000000 )


      isym = 10     180 deg rotation - cart. axis [-1,0,1]       

 cryst.   s(10) = (    -1          0          0      )
                  (     0          0          1      )
                  (     0          1          0      )

 cart.    s(10) = (  0.0000000  0.0000000 -1.0000000 )
                  (  0.0000000 -1.0000000  0.0000000 )
                  ( -1.0000000  0.0000000  0.0000000 )


      isym = 11      90 deg rotation - cart. axis [0,1,0]        

 cryst.   s(11) = (     0          0         -1      )
                  (     1          0          0      )
                  (     1         -1          1      )

 cart.    s(11) = (  0.0000000  0.0000000  1.0000000 )
                  (  0.0000000  1.0000000  0.0000000 )
                  ( -1.0000000  0.0000000  0.0000000 )


      isym = 12      90 deg rotation - cart. axis [0,-1,0]       

 cryst.   s(12) = (     0          1          0      )
                  (    -1          1         -1      )
                  (    -1          0          0      )

 cart.    s(12) = (  0.0000000  0.0000000 -1.0000000 )
                  (  0.0000000  1.0000000  0.0000000 )
                  (  1.0000000  0.0000000  0.0000000 )


      isym = 13     180 deg rotation - cart. axis [0,1,1]        

 cryst.   s(13) = (     0          1          0      )
                  (     1          0          0      )
                  (     0          0         -1      )

 cart.    s(13) = ( -1.0000000  0.0000000  0.0000000 )
                  (  0.0000000  0.0000000  1.0000000 )
                  (  0.0000000  1.0000000  0.0000000 )


      isym = 14     180 deg rotation - cart. axis [0,1,-1]       

 cryst.   s(14) = (    -1          0          0      )
                  (     0         -1          0      )
                  (     1         -1          1      )

 cart.    s(14) = ( -1.0000000  0.0000000  0.0000000 )
                  (  0.0000000  0.0000000 -1.0000000 )
                  (  0.0000000 -1.0000000  0.0000000 )


      isym = 15      90 deg rotation - cart. axis [-1,0,0]       

 cryst.   s(15) = (     0          0         -1      )
                  (    -1          1         -1      )
                  (     0          1          0      )

 cart.    s(15) = (  1.0000000  0.0000000  0.0000000 )
                  (  0.0000000  0.0000000  1.0000000 )
                  (  0.0000000 -1.0000000  0.0000000 )


      isym = 16      90 deg rotation - cart. axis [1,0,0]        

 cryst.   s(16) = (     1         -1          1      )
                  (     0          0          1      )
                  (    -1          0          0      )

 cart.    s(16) = (  1.0000000  0.0000000  0.0000000 )
                  (  0.0000000  0.0000000 -1.0000000 )
                  (  0.0000000  1.0000000  0.0000000 )


      isym = 17     120 deg rotation - cart. axis [-1,-1,-1]     

 cryst.   s(17) = (     1          0          0      )
                  (     0          0         -1      )
                  (    -1          1         -1      )

 cart.    s(17) = (  0.0000000  1.0000000  0.0000000 )
                  (  0.0000000  0.0000000  1.0000000 )
                  (  1.0000000  0.0000000  0.0000000 )


      isym = 18     120 deg rotation - cart. axis [-1,1,1]       

 cryst.   s(18) = (    -1          1         -1      )
                  (     0          1          0      )
                  (     1          0          0      )

 cart.    s(18) = (  0.0000000 -1.0000000  0.0000000 )
                  (  0.0000000  0.0000000  1.0000000 )
                  ( -1.0000000  0.0000000  0.0000000 )


      isym = 19     120 deg rotation - cart. axis [1,1,-1]       

 cryst.   s(19) = (     0         -1          0      )
                  (     1         -1          1      )
                  (     0          0          1      )

 cart.    s(19) = (  0.0000000  1.0000000  0.0000000 )
                  (  0.0000000  0.0000000 -1.0000000 )
                  ( -1.0000000  0.0000000  0.0000000 )


      isym = 20     120 deg rotation - cart. axis [1,-1,1]       

 cryst.   s(20) = (     0          0          1      )
                  (    -1          0          0      )
                  (     0         -1          0      )

 cart.    s(20) = (  0.0000000 -1.0000000  0.0000000 )
                  (  0.0000000  0.0000000 -1.0000000 )
                  (  1.0000000  0.0000000  0.0000000 )


      isym = 21     120 deg rotation - cart. axis [1,1,1]        

 cryst.   s(21) = (     1          0          0      )
                  (     1         -1          1      )
                  (     0         -1          0      )

 cart.    s(21) = (  0.0000000  0.0000000  1.0000000 )
                  (  1.0000000  0.0000000  0.0000000 )
                  (  0.0000000  1.0000000  0.0000000 )


      isym = 22     120 deg rotation - cart. axis [-1,1,-1]      

 cryst.   s(22) = (     0         -1          0      )
                  (     0          0         -1      )
                  (     1          0          0      )

 cart.    s(22) = (  0.0000000  0.0000000  1.0000000 )
                  ( -1.0000000  0.0000000  0.0000000 )
                  (  0.0000000 -1.0000000  0.0000000 )


      isym = 23     120 deg rotation - cart. axis [1,-1,-1]      

 cryst.   s(23) = (     0          0          1      )
                  (     0          1          0      )
                  (    -1          1         -1      )

 cart.    s(23) = (  0.0000000  0.0000000 -1.0000000 )
                  ( -1.0000000  0.0000000  0.0000000 )
                  (  0.0000000  1.0000000  0.0000000 )


      isym = 24     120 deg rotation - cart. axis [-1,-1,1]      

 cryst.   s(24) = (    -1          1         -1      )
                  (    -1          0          0      )
                  (     0          0          1      )

 cart.    s(24) = (  0.0000000  0.0000000 -1.0000000 )
                  (  1.0000000  0.0000000  0.0000000 )
                  (  0.0000000 -1.0000000  0.0000000 )


      isym = 25     inversion                                    

 cryst.   s(25) = (    -1          0          0      )
                  (     0         -1          0      )
                  (     0          0         -1      )

 cart.    s(25) = ( -1.0000000  0.0000000  0.0000000 )
                  (  0.0000000 -1.0000000  0.0000000 )
                  (  0.0000000  0.0000000 -1.0000000 )


      isym = 26     inv. 180 deg rotation - cart. axis [0,0,1]   

 cryst.   s(26) = (     0          0         -1      )
                  (    -1          1         -1      )
                  (    -1          0          0      )

 cart.    s(26) = (  1.0000000  0.0000000  0.0000000 )
                  (  0.0000000  1.0000000  0.0000000 )
                  (  0.0000000  0.0000000 -1.0000000 )


      isym = 27     inv. 180 deg rotation - cart. axis [0,1,0]   

 cryst.   s(27) = (     1         -1          1      )
                  (     0          0          1      )
                  (     0          1          0      )

 cart.    s(27) = (  1.0000000  0.0000000  0.0000000 )
                  (  0.0000000 -1.0000000  0.0000000 )
                  (  0.0000000  0.0000000  1.0000000 )


      isym = 28     inv. 180 deg rotation - cart. axis [1,0,0]   

 cryst.   s(28) = (     0          1          0      )
                  (     1          0          0      )
                  (     1         -1          1      )

 cart.    s(28) = ( -1.0000000  0.0000000  0.0000000 )
                  (  0.0000000  1.0000000  0.0000000 )
                  (  0.0000000  0.0000000  1.0000000 )


      isym = 29     inv. 180 deg rotation - cart. axis [1,1,0]   

 cryst.   s(29) = (     0          0          1      )
                  (     0          1          0      )
                  (     1          0          0      )

 cart.    s(29) = (  0.0000000 -1.0000000  0.0000000 )
                  ( -1.0000000  0.0000000  0.0000000 )
                  (  0.0000000  0.0000000  1.0000000 )


      isym = 30     inv. 180 deg rotation - cart. axis [1,-1,0]  

 cryst.   s(30) = (     1          0          0      )
                  (     1         -1          1      )
                  (     0          0          1      )

 cart.    s(30) = (  0.0000000  1.0000000  0.0000000 )
                  (  1.0000000  0.0000000  0.0000000 )
                  (  0.0000000  0.0000000  1.0000000 )


      isym = 31     inv.  90 deg rotation - cart. axis [0,0,-1]  

 cryst.   s(31) = (    -1          1         -1      )
                  (    -1          0          0      )
                  (     0         -1          0      )

 cart.    s(31) = (  0.0000000 -1.0000000  0.0000000 )
                  (  1.0000000  0.0000000  0.0000000 )
                  (  0.0000000  0.0000000 -1.0000000 )


      isym = 32     inv.  90 deg rotation - cart. axis [0,0,1]   

 cryst.   s(32) = (     0         -1          0      )
                  (     0          0         -1      )
                  (    -1          1         -1      )

 cart.    s(32) = (  0.0000000  1.0000000  0.0000000 )
                  ( -1.0000000  0.0000000  0.0000000 )
                  (  0.0000000  0.0000000 -1.0000000 )


      isym = 33     inv. 180 deg rotation - cart. axis [1,0,1]   

 cryst.   s(33) = (    -1          1         -1      )
                  (     0          1          0      )
                  (     0          0          1      )

 cart.    s(33) = (  0.0000000  0.0000000 -1.0000000 )
                  (  0.0000000  1.0000000  0.0000000 )
                  ( -1.0000000  0.0000000  0.0000000 )


      isym = 34     inv. 180 deg rotation - cart. axis [-1,0,1]  

 cryst.   s(34) = (     1          0          0      )
                  (     0          0         -1      )
                  (     0         -1          0      )

 cart.    s(34) = (  0.0000000  0.0000000  1.0000000 )
                  (  0.0000000  1.0000000  0.0000000 )
                  (  1.0000000  0.0000000  0.0000000 )


      isym = 35     inv.  90 deg rotation - cart. axis [0,1,0]   

 cryst.   s(35) = (     0          0          1      )
                  (    -1          0          0      )
                  (    -1          1         -1      )

 cart.    s(35) = (  0.0000000  0.0000000 -1.0000000 )
                  (  0.0000000 -1.0000000  0.0000000 )
                  (  1.0000000  0.0000000  0.0000000 )


      isym = 36     inv.  90 deg rotation - cart. axis [0,-1,0]  

 cryst.   s(36) = (     0         -1          0      )
                  (     1         -1          1      )
                  (     1          0          0      )

 cart.    s(36) = (  0.0000000  0.0000000  1.0000000 )
                  (  0.0000000 -1.0000000  0.0000000 )
                  ( -1.0000000  0.0000000  0.0000000 )


      isym = 37     inv. 180 deg rotation - cart. axis [0,1,1]   

 cryst.   s(37) = (     0         -1          0      )
                  (    -1          0          0      )
                  (     0          0          1      )

 cart.    s(37) = (  1.0000000  0.0000000  0.0000000 )
                  (  0.0000000  0.0000000 -1.0000000 )
                  (  0.0000000 -1.0000000  0.0000000 )


      isym = 38     inv. 180 deg rotation - cart. axis [0,1,-1]  

 cryst.   s(38) = (     1          0          0      )
                  (     0          1          0      )
                  (    -1          1         -1      )

 cart.    s(38) = (  1.0000000  0.0000000  0.0000000 )
                  (  0.0000000  0.0000000  1.0000000 )
                  (  0.0000000  1.0000000  0.0000000 )


      isym = 39     inv.  90 deg rotation - cart. axis [-1,0,0]  

 cryst.   s(39) = (     0          0          1      )
                  (     1         -1          1      )
                  (     0         -1          0      )

 cart.    s(39) = ( -1.0000000  0.0000000  0.0000000 )
                  (  0.0000000  0.0000000 -1.0000000 )
                  (  0.0000000  1.0000000  0.0000000 )


      isym = 40     inv.  90 deg rotation - cart. axis [1,0,0]   

 cryst.   s(40) = (    -1          1         -1      )
                  (     0          0         -1      )
                  (     1          0          0      )

 cart.    s(40) = ( -1.0000000  0.0000000  0.0000000 )
                  (  0.0000000  0.0000000  1.0000000 )
                  (  0.0000000 -1.0000000  0.0000000 )


      isym = 41     inv. 120 deg rotation - cart. axis [-1,-1,-1]

 cryst.   s(41) = (    -1          0          0      )
                  (     0          0          1      )
                  (     1         -1          1      )

 cart.    s(41) = (  0.0000000 -1.0000000  0.0000000 )
                  (  0.0000000  0.0000000 -1.0000000 )
                  ( -1.0000000  0.0000000  0.0000000 )


      isym = 42     inv. 120 deg rotation - cart. axis [-1,1,1]  

 cryst.   s(42) = (     1         -1          1      )
                  (     0         -1          0      )
                  (    -1          0          0      )

 cart.    s(42) = (  0.0000000  1.0000000  0.0000000 )
                  (  0.0000000  0.0000000 -1.0000000 )
                  (  1.0000000  0.0000000  0.0000000 )


      isym = 43     inv. 120 deg rotation - cart. axis [1,1,-1]  

 cryst.   s(43) = (     0          1          0      )
                  (    -1          1         -1      )
                  (     0          0         -1      )

 cart.    s(43) = (  0.0000000 -1.0000000  0.0000000 )
                  (  0.0000000  0.0000000  1.0000000 )
                  (  1.0000000  0.0000000  0.0000000 )


      isym = 44     inv. 120 deg rotation - cart. axis [1,-1,1]  

 cryst.   s(44) = (     0          0         -1      )
                  (     1          0          0      )
                  (     0          1          0      )

 cart.    s(44) = (  0.0000000  1.0000000  0.0000000 )
                  (  0.0000000  0.0000000  1.0000000 )
                  ( -1.0000000  0.0000000  0.0000000 )


      isym = 45     inv. 120 deg rotation - cart. axis [1,1,1]   

 cryst.   s(45) = (    -1          0          0      )
                  (    -1          1         -1      )
                  (     0          1          0      )

 cart.    s(45) = (  0.0000000  0.0000000 -1.0000000 )
                  ( -1.0000000  0.0000000  0.0000000 )
                  (  0.0000000 -1.0000000  0.0000000 )


      isym = 46     inv. 120 deg rotation - cart. axis [-1,1,-1] 

 cryst.   s(46) = (     0          1          0      )
                  (     0          0          1      )
                  (    -1          0          0      )

 cart.    s(46) = (  0.0000000  0.0000000 -1.0000000 )
                  (  1.0000000  0.0000000  0.0000000 )
                  (  0.0000000  1.0000000  0.0000000 )


      isym = 47     inv. 120 deg rotation - cart. axis [1,-1,-1] 

 cryst.   s(47) = (     0          0         -1      )
                  (     0         -1          0      )
                  (     1         -1          1      )

 cart.    s(47) = (  0.0000000  0.0000000  1.0000000 )
                  (  1.0000000  0.0000000  0.0000000 )
                  (  0.0000000 -1.0000000  0.0000000 )


      isym = 48     inv. 120 deg rotation - cart. axis [-1,-1,1] 

 cryst.   s(48) = (     1         -1          1      )
                  (     1          0          0      )
                  (     0          0         -1      )

 cart.    s(48) = (  0.0000000  0.0000000  1.0000000 )
                  ( -1.0000000  0.0000000  0.0000000 )
                  (  0.0000000  1.0000000  0.0000000 )


     point group O_h (m-3m) 
     there are 10 classes
     the character table:

       E     8C3   6C2'  6C4   3C2   i     6S4   8S6   3s_h  6s_d 
A_1g   1.00  1.00  1.00  1.00  1.00  1.00  1.00  1.00  1.00  1.00
A_2g   1.00  1.00 -1.00 -1.00  1.00  1.00 -1.00  1.00  1.00 -1.00
E_g    2.00 -1.00  0.00  0.00  2.00  2.00  0.00 -1.00  2.00  0.00
T_1g   3.00  0.00 -1.00  1.00 -1.00  3.00  1.00  0.00 -1.00 -1.00
T_2g   3.00  0.00  1.00 -1.00 -1.00  3.00 -1.00  0.00 -1.00  1.00
A_1u   1.00  1.00  1.00  1.00  1.00 -1.00 -1.00 -1.00 -1.00 -1.00
A_2u   1.00  1.00 -1.00 -1.00  1.00 -1.00  1.00 -1.00 -1.00  1.00
E_u    2.00 -1.00  0.00  0.00  2.00 -2.00  0.00  1.00 -2.00  0.00
T_1u   3.00  0.00 -1.00  1.00 -1.00 -3.00 -1.00  0.00  1.00  1.00
T_2u   3.00  0.00  1.00 -1.00 -1.00 -3.00  1.00  0.00  1.00 -1.00

     the symmetry operations in each class:
     E        1
     3C2      2    4    3
     6C2'     5    6   14   13   10    9
     6C4      7    8   15   16   12   11
     8C3     17   19   20   18   24   21   22   23
     i       25
     3s_h    26   28   27
     6s_d    29   30   38   37   34   33
     6S4     31   32   39   40   36   35
     8S6     41   43   44   42   48   45   46   47

   Cartesian axes

     site n.     atom                  positions (alat units)
         1           Fe  tau(   1) = (   0.0000000   0.0000000   0.0000000  )

   Crystallographic axes

     site n.     atom                  positions (cryst. coord.)
         1           Fe  tau(   1) = (  0.0000000  0.0000000  0.0000000  )

     number of k points=    12
                       cart. coord. in units 2pi/alat
        k(    1) = (   0.0000000   0.0000000   0.2500431), wk =   0.1666667
        k(    2) = (   0.0000000  -0.2500000   0.5000432), wk =   0.1666667
        k(    3) = (  -0.2500000   0.2500000   0.2500431), wk =   0.1666667
        k(    4) = (  -0.2500000   0.7500000  -0.2499569), wk =   0.1666667
        k(    5) = (   0.5000000  -0.5000000   0.2500431), wk =   0.1666667
        k(    6) = (   0.0000000   0.0000000   0.7500432), wk =   0.1666667
        k(    7) = (   0.0000000   0.0000000   0.2500431), wk =   0.1666667
        k(    8) = (   0.0000000  -0.2500000   0.5000432), wk =   0.1666667
        k(    9) = (  -0.2500000   0.2500000   0.2500431), wk =   0.1666667
        k(   10) = (  -0.2500000   0.7500000  -0.2499569), wk =   0.1666667
        k(   11) = (   0.5000000  -0.5000000   0.2500431), wk =   0.1666667
        k(   12) = (   0.0000000   0.0000000   0.7500432), wk =   0.1666667

                       cryst. coord.
        k(    1) = (   0.1250216   0.1250216   0.1250216), wk =   0.1666667
        k(    2) = (   0.1250216   0.1250216   0.3750216), wk =   0.1666667
        k(    3) = (   0.1250216   0.3750216   0.1250216), wk =   0.1666667
        k(    4) = (   0.1250216   0.3750216  -0.3749784), wk =   0.1666667
        k(    5) = (   0.1250216  -0.3749784   0.1250216), wk =   0.1666667
        k(    6) = (   0.3750216   0.3750216   0.3750216), wk =   0.1666667
        k(    7) = (   0.1250216   0.1250216   0.1250216), wk =   0.1666667
        k(    8) = (   0.1250216   0.1250216   0.3750216), wk =   0.1666667
        k(    9) = (   0.1250216   0.3750216   0.1250216), wk =   0.1666667
        k(   10) = (   0.1250216   0.3750216  -0.3749784), wk =   0.1666667
        k(   11) = (   0.1250216  -0.3749784   0.1250216), wk =   0.1666667
        k(   12) = (   0.3750216   0.3750216   0.3750216), wk =   0.1666667

     Dense  grid:     3151 G-vectors     FFT dimensions: (  20,  20,  20)

     Largest allocated arrays     est. size (Mb)     dimensions
        Kohn-Sham Wavefunctions         0.06 Mb     (     411,   10)
        NL pseudopotentials             0.05 Mb     (     411,    8)
        Each V/rho on FFT grid          0.24 Mb     (    8000,   2)
        Each G-vector array             0.02 Mb     (    3151)
        G-vector shells                 0.00 Mb     (      62)
     Largest temporary arrays     est. size (Mb)     dimensions
        Auxiliary wavefunctions         0.25 Mb     (     411,   40)
        Each subspace H/S matrix        0.02 Mb     (      40,   40)
        Each <psi_i|beta_j> matrix      0.00 Mb     (       8,   10)

     Check: negative/imaginary core charge=   -0.000019    0.000000

     The potential is recalculated from file :
     ./Fe_nscf_e45_k4s3_nb10.save/charge-density.dat

     Starting wfc are    9 randomized atomic wfcs +    1 random wfc

     Band Structure Calculation
     Davidson diagonalization with overlap

     Computing kpt #:     1
     total cpu time spent up to now is        0.3 secs

     Computing kpt #:     2
     total cpu time spent up to now is        0.4 secs

     Computing kpt #:     3
     total cpu time spent up to now is        0.4 secs

     Computing kpt #:     4
     total cpu time spent up to now is        0.4 secs

     Computing kpt #:     5
     total cpu time spent up to now is        0.4 secs

     Computing kpt #:     6
     total cpu time spent up to now is        0.4 secs

     Computing kpt #:     7
     total cpu time spent up to now is        0.5 secs

     Computing kpt #:     8
     total cpu time spent up to now is        0.5 secs

     Computing kpt #:     9
     total cpu time spent up to now is        0.5 secs

     Computing kpt #:    10
     total cpu time spent up to now is        0.6 secs

     Computing kpt #:    11
     total cpu time spent up to now is        0.6 secs

     Computing kpt #:    12
     total cpu time spent up to now is        0.6 secs

     ethr =  1.25E-10,  avg # of iterations = 14.1

     total cpu time spent up to now is        0.6 secs

     End of band structure calculation

 ------ SPIN UP ------------


          k = 0.0000 0.0000 0.2500 (   398 PWs)   bands (ev):

     6.3215  11.4582  11.4582  11.7848  12.0012  12.7536  36.1127  37.7032
    37.7032  37.7708

          k = 0.0000-0.2500 0.5000 (   407 PWs)   bands (ev):

     9.0561  10.8638  11.0850  12.3841  13.4483  14.0231  24.5589  31.9703
    32.6969  41.1068

          k =-0.2500 0.2500 0.2500 (   411 PWs)   bands (ev):

     8.3517  10.6537  10.6537  12.5465  12.5466  13.6024  30.5858  30.5866
    31.3327  43.0854

          k =-0.2500 0.7500-0.2500 (   400 PWs)   bands (ev):

    10.2473  10.2475  10.7814  13.0201  13.0203  20.8089  20.8103  22.9918
    37.6573  39.1692

          k = 0.5000-0.5000 0.2500 (   406 PWs)   bands (ev):

     9.6040  10.3563  11.5426  12.7506  12.7710  17.6383  21.3017  28.1861
    28.1907  45.0022

          k = 0.0000 0.0000 0.7500 (   402 PWs)   bands (ev):

     9.4213   9.5647  12.8726  12.8726  13.4475  18.3175  25.6080  25.6080
    31.8097  32.0676

 ------ SPIN DOWN ----------


          k = 0.0000 0.0000 0.2500 (   398 PWs)   bands (ev):

     6.4513  13.6843  13.6843  14.0944  14.9282  15.8921  36.0448  38.0365
    38.0365  38.2764

          k = 0.0000-0.2500 0.5000 (   407 PWs)   bands (ev):

    10.0492  12.9329  12.9715  14.9979  15.9593  16.4580  25.5735  32.6218
    32.9296  41.4060

          k =-0.2500 0.2500 0.2500 (   411 PWs)   bands (ev):

     8.6154  12.7231  12.7231  15.6007  15.6009  15.9022  31.0384  31.0391
    32.2306  42.6563

          k =-0.2500 0.7500-0.2500 (   400 PWs)   bands (ev):

    12.1454  12.1454  12.6942  15.5870  15.5872  21.9419  21.9432  23.9822
    38.2877  39.2618

          k = 0.5000-0.5000 0.2500 (   406 PWs)   bands (ev):

    11.1630  12.2763  12.7892  15.7630  15.9534  18.9842  22.6321  28.6589
    28.8969  44.7907

          k = 0.0000 0.0000 0.7500 (   402 PWs)   bands (ev):

    11.2688  11.7995  15.1799  15.1799  15.9614  19.3568  26.1321  26.1321
    32.5332  32.8817

     Writing output data file Fe_nscf_e45_k4s3_nb10.save

     init_run     :      0.14s CPU      0.14s WALL (       1 calls)
     electrons    :      0.28s CPU      0.29s WALL (       1 calls)

     Called by init_run:
     wfcinit      :      0.00s CPU      0.00s WALL (       1 calls)
     potinit      :      0.02s CPU      0.02s WALL (       1 calls)

     Called by electrons:
     c_bands      :      0.28s CPU      0.29s WALL (       1 calls)
     v_of_rho     :      0.02s CPU      0.02s WALL (       1 calls)
     v_h          :      0.00s CPU      0.00s WALL (       1 calls)
     v_xc         :      0.02s CPU      0.02s WALL (       1 calls)

     Called by c_bands:
     init_us_2    :      0.00s CPU      0.00s WALL (      12 calls)
     cegterg      :      0.25s CPU      0.26s WALL (      12 calls)

     Called by sum_band:

     Called by *egterg:
     h_psi        :      0.18s CPU      0.19s WALL (     193 calls)
     g_psi        :      0.00s CPU      0.00s WALL (     169 calls)
     cdiaghg      :      0.04s CPU      0.05s WALL (     181 calls)
     cegterg:over :      0.02s CPU      0.01s WALL (     169 calls)
     cegterg:upda :      0.01s CPU      0.01s WALL (     169 calls)
     cegterg:last :      0.01s CPU      0.01s WALL (      36 calls)

     Called by h_psi:
     h_psi:vloc   :      0.16s CPU      0.18s WALL (     193 calls)
     h_psi:vnl    :      0.02s CPU      0.01s WALL (     193 calls)
     add_vuspsi   :      0.01s CPU      0.00s WALL (     193 calls)

     General routines
     calbec       :      0.00s CPU      0.00s WALL (     193 calls)
     fft          :      0.00s CPU      0.00s WALL (      19 calls)
     fftw         :      0.14s CPU      0.16s WALL (    2312 calls)

     Parallel routines
     fft_scatter  :      0.02s CPU      0.02s WALL (    2331 calls)

     PWSCF        :     0.66s CPU         0.67s WALL


   This run was terminated on:  15:16:37  28Jul2018            

=------------------------------------------------------------------------------=
   JOB DONE.
=------------------------------------------------------------------------------=
