
     Program PWSCF v.5.1 starts on 28Jul2018 at 13:40:15 

     This program is part of the open-source Quantum ESPRESSO suite
     for quantum simulation of materials; please cite
         "P. Giannozzi et al., J. Phys.:Condens. Matter 21 395502 (2009);
          URL http://www.quantum-espresso.org", 
     in publications or presentations arising from this work. More details at
     http://www.quantum-espresso.org/quote

     Parallel version (MPI), running on     1 processors
     Waiting for input...
     Reading input from standard input
     Message from routine read_cards :
     DEPRECATED: no units specified in ATOMIC_POSITIONS card
     Message from routine read_cards :
     ATOMIC_POSITIONS: units set to alat

     Current dimensions of program PWSCF are:
     Max number of different atomic species (ntypx) = 10
     Max number of k-points (npk) =  40000
     Max angular momentum in pseudopotentials (lmaxx) =  3

     Atomic positions and unit cell read from directory:
     ./Fe_nscf_e45_k16_nb10.save/


     Subspace diagonalization in iterative solution of the eigenvalue problem:
     a serial algorithm will be used


     G-vector sticks info
     --------------------
     sticks:   dense  smooth     PW     G-vecs:    dense   smooth      PW
     Sum         291     291     99                 3151     3151     627

     Generating pointlists ...
     new r_m :   0.3572 (alat units)  1.9362 (a.u.) for type    1


     bravais-lattice index     =            3
     lattice parameter (alat)  =       5.4200  a.u.
     unit-cell volume          =      79.6100 (a.u.)^3
     number of atoms/cell      =            1
     number of atomic types    =            1
     number of electrons       =         8.00
     number of Kohn-Sham states=           10
     kinetic-energy cutoff     =      45.0000  Ry
     charge density cutoff     =     180.0000  Ry
     Exchange-correlation      = PBE ( 1  4  3  4 0)

     celldm(1)=   5.420000  celldm(2)=   0.000000  celldm(3)=   0.000000
     celldm(4)=   0.000000  celldm(5)=   0.000000  celldm(6)=   0.000000

     crystal axes: (cart. coord. in units of alat)
               a(1) = (   0.500000   0.500000   0.500000 )  
               a(2) = (  -0.500000   0.500000   0.500000 )  
               a(3) = (  -0.500000  -0.500000   0.500000 )  

     reciprocal axes: (cart. coord. in units 2 pi/alat)
               b(1) = (  1.000000  0.000000  1.000000 )  
               b(2) = ( -1.000000  1.000000  0.000000 )  
               b(3) = (  0.000000 -1.000000  1.000000 )  


     PseudoPot. # 1 for Fe read from file:
     ./Fe.rel-pbe-n-nc.UPF
     MD5 check sum: 94258d60e67ccf79570366bad73e55f4
     Pseudo is Norm-conserving + core correction, Zval =  8.0
     Generated using "atomic" code by A. Dal Corso  v.5.0.2 svn rev. 10042M
     Using radial grid of 1191 points,  2 beta functions with: 
                l(1) =   1
                l(2) =   2

     atomic species   valence    mass     pseudopotential
        Fe             8.00    55.84500     Fe( 1.00)

     Starting magnetic structure 
     atomic species   magnetization
        Fe           1.000

     48 Sym. Ops., with inversion, found


                                    s                        frac. trans.

      isym =  1     identity                                     

 cryst.   s( 1) = (     1          0          0      )
                  (     0          1          0      )
                  (     0          0          1      )

 cart.    s( 1) = (  1.0000000  0.0000000  0.0000000 )
                  (  0.0000000  1.0000000  0.0000000 )
                  (  0.0000000  0.0000000  1.0000000 )


      isym =  2     180 deg rotation - cart. axis [0,0,1]        

 cryst.   s( 2) = (     0          0          1      )
                  (     1         -1          1      )
                  (     1          0          0      )

 cart.    s( 2) = ( -1.0000000  0.0000000  0.0000000 )
                  (  0.0000000 -1.0000000  0.0000000 )
                  (  0.0000000  0.0000000  1.0000000 )


      isym =  3     180 deg rotation - cart. axis [0,1,0]        

 cryst.   s( 3) = (    -1          1         -1      )
                  (     0          0         -1      )
                  (     0         -1          0      )

 cart.    s( 3) = ( -1.0000000  0.0000000  0.0000000 )
                  (  0.0000000  1.0000000  0.0000000 )
                  (  0.0000000  0.0000000 -1.0000000 )


      isym =  4     180 deg rotation - cart. axis [1,0,0]        

 cryst.   s( 4) = (     0         -1          0      )
                  (    -1          0          0      )
                  (    -1          1         -1      )

 cart.    s( 4) = (  1.0000000  0.0000000  0.0000000 )
                  (  0.0000000 -1.0000000  0.0000000 )
                  (  0.0000000  0.0000000 -1.0000000 )


      isym =  5     180 deg rotation - cart. axis [1,1,0]        

 cryst.   s( 5) = (     0          0         -1      )
                  (     0         -1          0      )
                  (    -1          0          0      )

 cart.    s( 5) = (  0.0000000  1.0000000  0.0000000 )
                  (  1.0000000  0.0000000  0.0000000 )
                  (  0.0000000  0.0000000 -1.0000000 )


      isym =  6     180 deg rotation - cart. axis [1,-1,0]       

 cryst.   s( 6) = (    -1          0          0      )
                  (    -1          1         -1      )
                  (     0          0         -1      )

 cart.    s( 6) = (  0.0000000 -1.0000000  0.0000000 )
                  ( -1.0000000  0.0000000  0.0000000 )
                  (  0.0000000  0.0000000 -1.0000000 )


      isym =  7      90 deg rotation - cart. axis [0,0,-1]       

 cryst.   s( 7) = (     1         -1          1      )
                  (     1          0          0      )
                  (     0          1          0      )

 cart.    s( 7) = (  0.0000000  1.0000000  0.0000000 )
                  ( -1.0000000  0.0000000  0.0000000 )
                  (  0.0000000  0.0000000  1.0000000 )


      isym =  8      90 deg rotation - cart. axis [0,0,1]        

 cryst.   s( 8) = (     0          1          0      )
                  (     0          0          1      )
                  (     1         -1          1      )

 cart.    s( 8) = (  0.0000000 -1.0000000  0.0000000 )
                  (  1.0000000  0.0000000  0.0000000 )
                  (  0.0000000  0.0000000  1.0000000 )


      isym =  9     180 deg rotation - cart. axis [1,0,1]        

 cryst.   s( 9) = (     1         -1          1      )
                  (     0         -1          0      )
                  (     0          0         -1      )

 cart.    s( 9) = (  0.0000000  0.0000000  1.0000000 )
                  (  0.0000000 -1.0000000  0.0000000 )
                  (  1.0000000  0.0000000  0.0000000 )


      isym = 10     180 deg rotation - cart. axis [-1,0,1]       

 cryst.   s(10) = (    -1          0          0      )
                  (     0          0          1      )
                  (     0          1          0      )

 cart.    s(10) = (  0.0000000  0.0000000 -1.0000000 )
                  (  0.0000000 -1.0000000  0.0000000 )
                  ( -1.0000000  0.0000000  0.0000000 )


      isym = 11      90 deg rotation - cart. axis [0,1,0]        

 cryst.   s(11) = (     0          0         -1      )
                  (     1          0          0      )
                  (     1         -1          1      )

 cart.    s(11) = (  0.0000000  0.0000000  1.0000000 )
                  (  0.0000000  1.0000000  0.0000000 )
                  ( -1.0000000  0.0000000  0.0000000 )


      isym = 12      90 deg rotation - cart. axis [0,-1,0]       

 cryst.   s(12) = (     0          1          0      )
                  (    -1          1         -1      )
                  (    -1          0          0      )

 cart.    s(12) = (  0.0000000  0.0000000 -1.0000000 )
                  (  0.0000000  1.0000000  0.0000000 )
                  (  1.0000000  0.0000000  0.0000000 )


      isym = 13     180 deg rotation - cart. axis [0,1,1]        

 cryst.   s(13) = (     0          1          0      )
                  (     1          0          0      )
                  (     0          0         -1      )

 cart.    s(13) = ( -1.0000000  0.0000000  0.0000000 )
                  (  0.0000000  0.0000000  1.0000000 )
                  (  0.0000000  1.0000000  0.0000000 )


      isym = 14     180 deg rotation - cart. axis [0,1,-1]       

 cryst.   s(14) = (    -1          0          0      )
                  (     0         -1          0      )
                  (     1         -1          1      )

 cart.    s(14) = ( -1.0000000  0.0000000  0.0000000 )
                  (  0.0000000  0.0000000 -1.0000000 )
                  (  0.0000000 -1.0000000  0.0000000 )


      isym = 15      90 deg rotation - cart. axis [-1,0,0]       

 cryst.   s(15) = (     0          0         -1      )
                  (    -1          1         -1      )
                  (     0          1          0      )

 cart.    s(15) = (  1.0000000  0.0000000  0.0000000 )
                  (  0.0000000  0.0000000  1.0000000 )
                  (  0.0000000 -1.0000000  0.0000000 )


      isym = 16      90 deg rotation - cart. axis [1,0,0]        

 cryst.   s(16) = (     1         -1          1      )
                  (     0          0          1      )
                  (    -1          0          0      )

 cart.    s(16) = (  1.0000000  0.0000000  0.0000000 )
                  (  0.0000000  0.0000000 -1.0000000 )
                  (  0.0000000  1.0000000  0.0000000 )


      isym = 17     120 deg rotation - cart. axis [-1,-1,-1]     

 cryst.   s(17) = (     1          0          0      )
                  (     0          0         -1      )
                  (    -1          1         -1      )

 cart.    s(17) = (  0.0000000  1.0000000  0.0000000 )
                  (  0.0000000  0.0000000  1.0000000 )
                  (  1.0000000  0.0000000  0.0000000 )


      isym = 18     120 deg rotation - cart. axis [-1,1,1]       

 cryst.   s(18) = (    -1          1         -1      )
                  (     0          1          0      )
                  (     1          0          0      )

 cart.    s(18) = (  0.0000000 -1.0000000  0.0000000 )
                  (  0.0000000  0.0000000  1.0000000 )
                  ( -1.0000000  0.0000000  0.0000000 )


      isym = 19     120 deg rotation - cart. axis [1,1,-1]       

 cryst.   s(19) = (     0         -1          0      )
                  (     1         -1          1      )
                  (     0          0          1      )

 cart.    s(19) = (  0.0000000  1.0000000  0.0000000 )
                  (  0.0000000  0.0000000 -1.0000000 )
                  ( -1.0000000  0.0000000  0.0000000 )


      isym = 20     120 deg rotation - cart. axis [1,-1,1]       

 cryst.   s(20) = (     0          0          1      )
                  (    -1          0          0      )
                  (     0         -1          0      )

 cart.    s(20) = (  0.0000000 -1.0000000  0.0000000 )
                  (  0.0000000  0.0000000 -1.0000000 )
                  (  1.0000000  0.0000000  0.0000000 )


      isym = 21     120 deg rotation - cart. axis [1,1,1]        

 cryst.   s(21) = (     1          0          0      )
                  (     1         -1          1      )
                  (     0         -1          0      )

 cart.    s(21) = (  0.0000000  0.0000000  1.0000000 )
                  (  1.0000000  0.0000000  0.0000000 )
                  (  0.0000000  1.0000000  0.0000000 )


      isym = 22     120 deg rotation - cart. axis [-1,1,-1]      

 cryst.   s(22) = (     0         -1          0      )
                  (     0          0         -1      )
                  (     1          0          0      )

 cart.    s(22) = (  0.0000000  0.0000000  1.0000000 )
                  ( -1.0000000  0.0000000  0.0000000 )
                  (  0.0000000 -1.0000000  0.0000000 )


      isym = 23     120 deg rotation - cart. axis [1,-1,-1]      

 cryst.   s(23) = (     0          0          1      )
                  (     0          1          0      )
                  (    -1          1         -1      )

 cart.    s(23) = (  0.0000000  0.0000000 -1.0000000 )
                  ( -1.0000000  0.0000000  0.0000000 )
                  (  0.0000000  1.0000000  0.0000000 )


      isym = 24     120 deg rotation - cart. axis [-1,-1,1]      

 cryst.   s(24) = (    -1          1         -1      )
                  (    -1          0          0      )
                  (     0          0          1      )

 cart.    s(24) = (  0.0000000  0.0000000 -1.0000000 )
                  (  1.0000000  0.0000000  0.0000000 )
                  (  0.0000000 -1.0000000  0.0000000 )


      isym = 25     inversion                                    

 cryst.   s(25) = (    -1          0          0      )
                  (     0         -1          0      )
                  (     0          0         -1      )

 cart.    s(25) = ( -1.0000000  0.0000000  0.0000000 )
                  (  0.0000000 -1.0000000  0.0000000 )
                  (  0.0000000  0.0000000 -1.0000000 )


      isym = 26     inv. 180 deg rotation - cart. axis [0,0,1]   

 cryst.   s(26) = (     0          0         -1      )
                  (    -1          1         -1      )
                  (    -1          0          0      )

 cart.    s(26) = (  1.0000000  0.0000000  0.0000000 )
                  (  0.0000000  1.0000000  0.0000000 )
                  (  0.0000000  0.0000000 -1.0000000 )


      isym = 27     inv. 180 deg rotation - cart. axis [0,1,0]   

 cryst.   s(27) = (     1         -1          1      )
                  (     0          0          1      )
                  (     0          1          0      )

 cart.    s(27) = (  1.0000000  0.0000000  0.0000000 )
                  (  0.0000000 -1.0000000  0.0000000 )
                  (  0.0000000  0.0000000  1.0000000 )


      isym = 28     inv. 180 deg rotation - cart. axis [1,0,0]   

 cryst.   s(28) = (     0          1          0      )
                  (     1          0          0      )
                  (     1         -1          1      )

 cart.    s(28) = ( -1.0000000  0.0000000  0.0000000 )
                  (  0.0000000  1.0000000  0.0000000 )
                  (  0.0000000  0.0000000  1.0000000 )


      isym = 29     inv. 180 deg rotation - cart. axis [1,1,0]   

 cryst.   s(29) = (     0          0          1      )
                  (     0          1          0      )
                  (     1          0          0      )

 cart.    s(29) = (  0.0000000 -1.0000000  0.0000000 )
                  ( -1.0000000  0.0000000  0.0000000 )
                  (  0.0000000  0.0000000  1.0000000 )


      isym = 30     inv. 180 deg rotation - cart. axis [1,-1,0]  

 cryst.   s(30) = (     1          0          0      )
                  (     1         -1          1      )
                  (     0          0          1      )

 cart.    s(30) = (  0.0000000  1.0000000  0.0000000 )
                  (  1.0000000  0.0000000  0.0000000 )
                  (  0.0000000  0.0000000  1.0000000 )


      isym = 31     inv.  90 deg rotation - cart. axis [0,0,-1]  

 cryst.   s(31) = (    -1          1         -1      )
                  (    -1          0          0      )
                  (     0         -1          0      )

 cart.    s(31) = (  0.0000000 -1.0000000  0.0000000 )
                  (  1.0000000  0.0000000  0.0000000 )
                  (  0.0000000  0.0000000 -1.0000000 )


      isym = 32     inv.  90 deg rotation - cart. axis [0,0,1]   

 cryst.   s(32) = (     0         -1          0      )
                  (     0          0         -1      )
                  (    -1          1         -1      )

 cart.    s(32) = (  0.0000000  1.0000000  0.0000000 )
                  ( -1.0000000  0.0000000  0.0000000 )
                  (  0.0000000  0.0000000 -1.0000000 )


      isym = 33     inv. 180 deg rotation - cart. axis [1,0,1]   

 cryst.   s(33) = (    -1          1         -1      )
                  (     0          1          0      )
                  (     0          0          1      )

 cart.    s(33) = (  0.0000000  0.0000000 -1.0000000 )
                  (  0.0000000  1.0000000  0.0000000 )
                  ( -1.0000000  0.0000000  0.0000000 )


      isym = 34     inv. 180 deg rotation - cart. axis [-1,0,1]  

 cryst.   s(34) = (     1          0          0      )
                  (     0          0         -1      )
                  (     0         -1          0      )

 cart.    s(34) = (  0.0000000  0.0000000  1.0000000 )
                  (  0.0000000  1.0000000  0.0000000 )
                  (  1.0000000  0.0000000  0.0000000 )


      isym = 35     inv.  90 deg rotation - cart. axis [0,1,0]   

 cryst.   s(35) = (     0          0          1      )
                  (    -1          0          0      )
                  (    -1          1         -1      )

 cart.    s(35) = (  0.0000000  0.0000000 -1.0000000 )
                  (  0.0000000 -1.0000000  0.0000000 )
                  (  1.0000000  0.0000000  0.0000000 )


      isym = 36     inv.  90 deg rotation - cart. axis [0,-1,0]  

 cryst.   s(36) = (     0         -1          0      )
                  (     1         -1          1      )
                  (     1          0          0      )

 cart.    s(36) = (  0.0000000  0.0000000  1.0000000 )
                  (  0.0000000 -1.0000000  0.0000000 )
                  ( -1.0000000  0.0000000  0.0000000 )


      isym = 37     inv. 180 deg rotation - cart. axis [0,1,1]   

 cryst.   s(37) = (     0         -1          0      )
                  (    -1          0          0      )
                  (     0          0          1      )

 cart.    s(37) = (  1.0000000  0.0000000  0.0000000 )
                  (  0.0000000  0.0000000 -1.0000000 )
                  (  0.0000000 -1.0000000  0.0000000 )


      isym = 38     inv. 180 deg rotation - cart. axis [0,1,-1]  

 cryst.   s(38) = (     1          0          0      )
                  (     0          1          0      )
                  (    -1          1         -1      )

 cart.    s(38) = (  1.0000000  0.0000000  0.0000000 )
                  (  0.0000000  0.0000000  1.0000000 )
                  (  0.0000000  1.0000000  0.0000000 )


      isym = 39     inv.  90 deg rotation - cart. axis [-1,0,0]  

 cryst.   s(39) = (     0          0          1      )
                  (     1         -1          1      )
                  (     0         -1          0      )

 cart.    s(39) = ( -1.0000000  0.0000000  0.0000000 )
                  (  0.0000000  0.0000000 -1.0000000 )
                  (  0.0000000  1.0000000  0.0000000 )


      isym = 40     inv.  90 deg rotation - cart. axis [1,0,0]   

 cryst.   s(40) = (    -1          1         -1      )
                  (     0          0         -1      )
                  (     1          0          0      )

 cart.    s(40) = ( -1.0000000  0.0000000  0.0000000 )
                  (  0.0000000  0.0000000  1.0000000 )
                  (  0.0000000 -1.0000000  0.0000000 )


      isym = 41     inv. 120 deg rotation - cart. axis [-1,-1,-1]

 cryst.   s(41) = (    -1          0          0      )
                  (     0          0          1      )
                  (     1         -1          1      )

 cart.    s(41) = (  0.0000000 -1.0000000  0.0000000 )
                  (  0.0000000  0.0000000 -1.0000000 )
                  ( -1.0000000  0.0000000  0.0000000 )


      isym = 42     inv. 120 deg rotation - cart. axis [-1,1,1]  

 cryst.   s(42) = (     1         -1          1      )
                  (     0         -1          0      )
                  (    -1          0          0      )

 cart.    s(42) = (  0.0000000  1.0000000  0.0000000 )
                  (  0.0000000  0.0000000 -1.0000000 )
                  (  1.0000000  0.0000000  0.0000000 )


      isym = 43     inv. 120 deg rotation - cart. axis [1,1,-1]  

 cryst.   s(43) = (     0          1          0      )
                  (    -1          1         -1      )
                  (     0          0         -1      )

 cart.    s(43) = (  0.0000000 -1.0000000  0.0000000 )
                  (  0.0000000  0.0000000  1.0000000 )
                  (  1.0000000  0.0000000  0.0000000 )


      isym = 44     inv. 120 deg rotation - cart. axis [1,-1,1]  

 cryst.   s(44) = (     0          0         -1      )
                  (     1          0          0      )
                  (     0          1          0      )

 cart.    s(44) = (  0.0000000  1.0000000  0.0000000 )
                  (  0.0000000  0.0000000  1.0000000 )
                  ( -1.0000000  0.0000000  0.0000000 )


      isym = 45     inv. 120 deg rotation - cart. axis [1,1,1]   

 cryst.   s(45) = (    -1          0          0      )
                  (    -1          1         -1      )
                  (     0          1          0      )

 cart.    s(45) = (  0.0000000  0.0000000 -1.0000000 )
                  ( -1.0000000  0.0000000  0.0000000 )
                  (  0.0000000 -1.0000000  0.0000000 )


      isym = 46     inv. 120 deg rotation - cart. axis [-1,1,-1] 

 cryst.   s(46) = (     0          1          0      )
                  (     0          0          1      )
                  (    -1          0          0      )

 cart.    s(46) = (  0.0000000  0.0000000 -1.0000000 )
                  (  1.0000000  0.0000000  0.0000000 )
                  (  0.0000000  1.0000000  0.0000000 )


      isym = 47     inv. 120 deg rotation - cart. axis [1,-1,-1] 

 cryst.   s(47) = (     0          0         -1      )
                  (     0         -1          0      )
                  (     1         -1          1      )

 cart.    s(47) = (  0.0000000  0.0000000  1.0000000 )
                  (  1.0000000  0.0000000  0.0000000 )
                  (  0.0000000 -1.0000000  0.0000000 )


      isym = 48     inv. 120 deg rotation - cart. axis [-1,-1,1] 

 cryst.   s(48) = (     1         -1          1      )
                  (     1          0          0      )
                  (     0          0         -1      )

 cart.    s(48) = (  0.0000000  0.0000000  1.0000000 )
                  ( -1.0000000  0.0000000  0.0000000 )
                  (  0.0000000  1.0000000  0.0000000 )


     point group O_h (m-3m) 
     there are 10 classes
     the character table:

       E     8C3   6C2'  6C4   3C2   i     6S4   8S6   3s_h  6s_d 
A_1g   1.00  1.00  1.00  1.00  1.00  1.00  1.00  1.00  1.00  1.00
A_2g   1.00  1.00 -1.00 -1.00  1.00  1.00 -1.00  1.00  1.00 -1.00
E_g    2.00 -1.00  0.00  0.00  2.00  2.00  0.00 -1.00  2.00  0.00
T_1g   3.00  0.00 -1.00  1.00 -1.00  3.00  1.00  0.00 -1.00 -1.00
T_2g   3.00  0.00  1.00 -1.00 -1.00  3.00 -1.00  0.00 -1.00  1.00
A_1u   1.00  1.00  1.00  1.00  1.00 -1.00 -1.00 -1.00 -1.00 -1.00
A_2u   1.00  1.00 -1.00 -1.00  1.00 -1.00  1.00 -1.00 -1.00  1.00
E_u    2.00 -1.00  0.00  0.00  2.00 -2.00  0.00  1.00 -2.00  0.00
T_1u   3.00  0.00 -1.00  1.00 -1.00 -3.00 -1.00  0.00  1.00  1.00
T_2u   3.00  0.00  1.00 -1.00 -1.00 -3.00  1.00  0.00  1.00 -1.00

     the symmetry operations in each class:
     E        1
     3C2      2    4    3
     6C2'     5    6   14   13   10    9
     6C4      7    8   15   16   12   11
     8C3     17   19   20   18   24   21   22   23
     i       25
     3s_h    26   28   27
     6s_d    29   30   38   37   34   33
     6S4     31   32   39   40   36   35
     8S6     41   43   44   42   48   45   46   47

   Cartesian axes

     site n.     atom                  positions (alat units)
         1           Fe  tau(   1) = (   0.0000000   0.0000000   0.0000000  )

   Crystallographic axes

     site n.     atom                  positions (cryst. coord.)
         1           Fe  tau(   1) = (  0.0000000  0.0000000  0.0000000  )

     number of k points=   280  gaussian smearing, width (Ry)=  0.0250
                       cart. coord. in units 2pi/alat
        k(    1) = (   0.0000000   0.0000000   0.0625000), wk =   0.0014648
        k(    2) = (   0.0000000  -0.0625000   0.1250000), wk =   0.0058594
        k(    3) = (   0.0000000  -0.1250000   0.1875000), wk =   0.0058594
        k(    4) = (   0.0000000  -0.1875000   0.2500000), wk =   0.0058594
        k(    5) = (   0.0000000  -0.2500000   0.3125000), wk =   0.0058594
        k(    6) = (   0.0000000  -0.3125000   0.3750000), wk =   0.0058594
        k(    7) = (   0.0000000  -0.3750000   0.4375000), wk =   0.0058594
        k(    8) = (   0.0000000  -0.4375000   0.5000000), wk =   0.0058594
        k(    9) = (  -0.0625000   0.0625000   0.0625000), wk =   0.0019531
        k(   10) = (  -0.0625000  -0.0625000   0.1875000), wk =   0.0058594
        k(   11) = (  -0.0625000  -0.1250000   0.2500000), wk =   0.0117188
        k(   12) = (  -0.0625000  -0.1875000   0.3125000), wk =   0.0117188
        k(   13) = (  -0.0625000  -0.2500000   0.3750000), wk =   0.0117188
        k(   14) = (  -0.0625000  -0.3125000   0.4375000), wk =   0.0117188
        k(   15) = (  -0.0625000  -0.3750000   0.5000000), wk =   0.0117188
        k(   16) = (  -0.0625000   0.5625000  -0.4375000), wk =   0.0058594
        k(   17) = (  -0.1250000   0.1250000   0.0625000), wk =   0.0058594
        k(   18) = (  -0.1250000  -0.1250000   0.3125000), wk =   0.0058594
        k(   19) = (  -0.1250000  -0.1875000   0.3750000), wk =   0.0117188
        k(   20) = (  -0.1250000  -0.2500000   0.4375000), wk =   0.0117188
        k(   21) = (  -0.1250000  -0.3125000   0.5000000), wk =   0.0117188
        k(   22) = (  -0.1250000   0.6250000  -0.4375000), wk =   0.0117188
        k(   23) = (  -0.1875000   0.1875000   0.0625000), wk =   0.0058594
        k(   24) = (  -0.1875000   0.1250000   0.1250000), wk =   0.0058594
        k(   25) = (  -0.1875000  -0.1875000   0.4375000), wk =   0.0058594
        k(   26) = (  -0.1875000  -0.2500000   0.5000000), wk =   0.0117188
        k(   27) = (  -0.1875000   0.6875000  -0.4375000), wk =   0.0117188
        k(   28) = (  -0.1875000   0.6250000  -0.3750000), wk =   0.0058594
        k(   29) = (  -0.2500000   0.2500000   0.0625000), wk =   0.0058594
        k(   30) = (  -0.2500000   0.1875000   0.1250000), wk =   0.0117188
        k(   31) = (  -0.2500000   0.7500000  -0.4375000), wk =   0.0058594
        k(   32) = (  -0.2500000   0.6875000  -0.3750000), wk =   0.0117188
        k(   33) = (  -0.3125000   0.3125000   0.0625000), wk =   0.0058594
        k(   34) = (  -0.3125000   0.2500000   0.1250000), wk =   0.0117188
        k(   35) = (  -0.3125000   0.1875000   0.1875000), wk =   0.0058594
        k(   36) = (  -0.3125000   0.6875000  -0.3125000), wk =   0.0019531
        k(   37) = (  -0.3750000   0.3750000   0.0625000), wk =   0.0058594
        k(   38) = (  -0.3750000   0.3125000   0.1250000), wk =   0.0117188
        k(   39) = (  -0.3750000   0.2500000   0.1875000), wk =   0.0117188
        k(   40) = (  -0.4375000   0.4375000   0.0625000), wk =   0.0058594
        k(   41) = (  -0.4375000   0.3750000   0.1250000), wk =   0.0117188
        k(   42) = (  -0.4375000   0.3125000   0.1875000), wk =   0.0117188
        k(   43) = (  -0.4375000   0.2500000   0.2500000), wk =   0.0058594
        k(   44) = (   0.5000000  -0.5000000   0.0625000), wk =   0.0029297
        k(   45) = (   0.5000000  -0.5625000   0.1250000), wk =   0.0117188
        k(   46) = (   0.5000000  -0.6250000   0.1875000), wk =   0.0117188
        k(   47) = (   0.5000000  -0.6875000   0.2500000), wk =   0.0117188
        k(   48) = (   0.4375000  -0.5625000   0.1875000), wk =   0.0058594
        k(   49) = (   0.4375000  -0.6250000   0.2500000), wk =   0.0117188
        k(   50) = (   0.4375000  -0.6875000   0.3125000), wk =   0.0058594
        k(   51) = (   0.3750000  -0.6250000   0.3125000), wk =   0.0058594
        k(   52) = (   0.0000000   0.0000000   0.1875000), wk =   0.0014648
        k(   53) = (   0.0000000  -0.0625000   0.2500000), wk =   0.0058594
        k(   54) = (   0.0000000  -0.1250000   0.3125000), wk =   0.0058594
        k(   55) = (   0.0000000  -0.1875000   0.3750000), wk =   0.0058594
        k(   56) = (   0.0000000  -0.2500000   0.4375000), wk =   0.0058594
        k(   57) = (   0.0000000  -0.3125000   0.5000000), wk =   0.0058594
        k(   58) = (   0.0000000  -0.3750000   0.5625000), wk =   0.0058594
        k(   59) = (  -0.0625000  -0.0625000   0.3125000), wk =   0.0058594
        k(   60) = (  -0.0625000  -0.1250000   0.3750000), wk =   0.0117188
        k(   61) = (  -0.0625000  -0.1875000   0.4375000), wk =   0.0117188
        k(   62) = (  -0.0625000  -0.2500000   0.5000000), wk =   0.0117188
        k(   63) = (  -0.0625000  -0.3125000   0.5625000), wk =   0.0117188
        k(   64) = (  -0.0625000   0.6250000  -0.3750000), wk =   0.0058594
        k(   65) = (  -0.1250000  -0.1250000   0.4375000), wk =   0.0058594
        k(   66) = (  -0.1250000  -0.1875000   0.5000000), wk =   0.0117188
        k(   67) = (  -0.1250000  -0.2500000   0.5625000), wk =   0.0117188
        k(   68) = (  -0.1250000   0.6875000  -0.3750000), wk =   0.0117188
        k(   69) = (  -0.1875000   0.1875000   0.1875000), wk =   0.0019531
        k(   70) = (  -0.1875000  -0.1875000   0.5625000), wk =   0.0058594
        k(   71) = (  -0.1875000   0.7500000  -0.3750000), wk =   0.0117188
        k(   72) = (  -0.1875000   0.6875000  -0.3125000), wk =   0.0058594
        k(   73) = (  -0.2500000   0.2500000   0.1875000), wk =   0.0058594
        k(   74) = (  -0.2500000   0.7500000  -0.3125000), wk =   0.0058594
        k(   75) = (  -0.3125000   0.3125000   0.1875000), wk =   0.0058594
        k(   76) = (  -0.3125000   0.2500000   0.2500000), wk =   0.0058594
        k(   77) = (  -0.3750000   0.3750000   0.1875000), wk =   0.0058594
        k(   78) = (  -0.3750000   0.3125000   0.2500000), wk =   0.0117188
        k(   79) = (   0.5625000  -0.5625000   0.1875000), wk =   0.0058594
        k(   80) = (   0.5625000  -0.6250000   0.2500000), wk =   0.0117188
        k(   81) = (   0.5625000  -0.6875000   0.3125000), wk =   0.0058594
        k(   82) = (   0.5000000  -0.5000000   0.1875000), wk =   0.0029297
        k(   83) = (   0.5000000  -0.5625000   0.2500000), wk =   0.0117188
        k(   84) = (   0.5000000  -0.6250000   0.3125000), wk =   0.0117188
        k(   85) = (   0.4375000  -0.5625000   0.3125000), wk =   0.0058594
        k(   86) = (   0.4375000  -0.6250000   0.3750000), wk =   0.0058594
        k(   87) = (   0.0000000   0.0000000   0.3125000), wk =   0.0014648
        k(   88) = (   0.0000000  -0.0625000   0.3750000), wk =   0.0058594
        k(   89) = (   0.0000000  -0.1250000   0.4375000), wk =   0.0058594
        k(   90) = (   0.0000000  -0.1875000   0.5000000), wk =   0.0058594
        k(   91) = (   0.0000000  -0.2500000   0.5625000), wk =   0.0058594
        k(   92) = (   0.0000000  -0.3125000   0.6250000), wk =   0.0058594
        k(   93) = (  -0.0625000  -0.0625000   0.4375000), wk =   0.0058594
        k(   94) = (  -0.0625000  -0.1250000   0.5000000), wk =   0.0117188
        k(   95) = (  -0.0625000  -0.1875000   0.5625000), wk =   0.0117188
        k(   96) = (  -0.0625000  -0.2500000   0.6250000), wk =   0.0117188
        k(   97) = (  -0.0625000   0.6875000  -0.3125000), wk =   0.0058594
        k(   98) = (  -0.1250000  -0.1250000   0.5625000), wk =   0.0058594
        k(   99) = (  -0.1250000  -0.1875000   0.6250000), wk =   0.0117188
        k(  100) = (  -0.1250000   0.7500000  -0.3125000), wk =   0.0117188
        k(  101) = (  -0.1875000   0.8125000  -0.3125000), wk =   0.0058594
        k(  102) = (  -0.1875000   0.7500000  -0.2500000), wk =   0.0058594
        k(  103) = (  -0.3125000   0.3125000   0.3125000), wk =   0.0019531
        k(  104) = (   0.6250000  -0.6250000   0.3125000), wk =   0.0058594
        k(  105) = (   0.5625000  -0.5625000   0.3125000), wk =   0.0058594
        k(  106) = (   0.5625000  -0.6250000   0.3750000), wk =   0.0058594
        k(  107) = (   0.5000000  -0.5000000   0.3125000), wk =   0.0029297
        k(  108) = (   0.5000000  -0.5625000   0.3750000), wk =   0.0117188
        k(  109) = (   0.4375000  -0.5625000   0.4375000), wk =   0.0019531
        k(  110) = (   0.0000000   0.0000000   0.4375000), wk =   0.0014648
        k(  111) = (   0.0000000  -0.0625000   0.5000000), wk =   0.0058594
        k(  112) = (   0.0000000  -0.1250000   0.5625000), wk =   0.0058594
        k(  113) = (   0.0000000  -0.1875000   0.6250000), wk =   0.0058594
        k(  114) = (   0.0000000  -0.2500000   0.6875000), wk =   0.0058594
        k(  115) = (  -0.0625000  -0.0625000   0.5625000), wk =   0.0058594
        k(  116) = (  -0.0625000  -0.1250000   0.6250000), wk =   0.0117188
        k(  117) = (  -0.0625000  -0.1875000   0.6875000), wk =   0.0117188
        k(  118) = (  -0.0625000   0.7500000  -0.2500000), wk =   0.0058594
        k(  119) = (  -0.1250000  -0.1250000   0.6875000), wk =   0.0058594
        k(  120) = (  -0.1250000   0.8125000  -0.2500000), wk =   0.0117188
        k(  121) = (  -0.1875000   0.8125000  -0.1875000), wk =   0.0019531
        k(  122) = (   0.5625000  -0.5625000   0.4375000), wk =   0.0019531
        k(  123) = (   0.5000000  -0.5000000   0.4375000), wk =   0.0029297
        k(  124) = (   0.0000000   0.0000000   0.5625000), wk =   0.0014648
        k(  125) = (   0.0000000  -0.0625000   0.6250000), wk =   0.0058594
        k(  126) = (   0.0000000  -0.1250000   0.6875000), wk =   0.0058594
        k(  127) = (   0.0000000  -0.1875000   0.7500000), wk =   0.0058594
        k(  128) = (  -0.0625000  -0.0625000   0.6875000), wk =   0.0058594
        k(  129) = (  -0.0625000  -0.1250000   0.7500000), wk =   0.0117188
        k(  130) = (  -0.0625000   0.8125000  -0.1875000), wk =   0.0058594
        k(  131) = (  -0.1250000   0.8750000  -0.1875000), wk =   0.0058594
        k(  132) = (   0.0000000   0.0000000   0.6875000), wk =   0.0014648
        k(  133) = (   0.0000000  -0.0625000   0.7500000), wk =   0.0058594
        k(  134) = (   0.0000000  -0.1250000   0.8125000), wk =   0.0058594
        k(  135) = (  -0.0625000  -0.0625000   0.8125000), wk =   0.0058594
        k(  136) = (  -0.0625000   0.8750000  -0.1250000), wk =   0.0058594
        k(  137) = (   0.0000000   0.0000000   0.8125000), wk =   0.0014648
        k(  138) = (   0.0000000  -0.0625000   0.8750000), wk =   0.0058594
        k(  139) = (  -0.0625000   0.9375000  -0.0625000), wk =   0.0019531
        k(  140) = (   0.0000000   0.0000000   0.9375000), wk =   0.0014648
        k(  141) = (   0.0000000   0.0000000   0.0625000), wk =   0.0014648
        k(  142) = (   0.0000000  -0.0625000   0.1250000), wk =   0.0058594
        k(  143) = (   0.0000000  -0.1250000   0.1875000), wk =   0.0058594
        k(  144) = (   0.0000000  -0.1875000   0.2500000), wk =   0.0058594
        k(  145) = (   0.0000000  -0.2500000   0.3125000), wk =   0.0058594
        k(  146) = (   0.0000000  -0.3125000   0.3750000), wk =   0.0058594
        k(  147) = (   0.0000000  -0.3750000   0.4375000), wk =   0.0058594
        k(  148) = (   0.0000000  -0.4375000   0.5000000), wk =   0.0058594
        k(  149) = (  -0.0625000   0.0625000   0.0625000), wk =   0.0019531
        k(  150) = (  -0.0625000  -0.0625000   0.1875000), wk =   0.0058594
        k(  151) = (  -0.0625000  -0.1250000   0.2500000), wk =   0.0117188
        k(  152) = (  -0.0625000  -0.1875000   0.3125000), wk =   0.0117188
        k(  153) = (  -0.0625000  -0.2500000   0.3750000), wk =   0.0117188
        k(  154) = (  -0.0625000  -0.3125000   0.4375000), wk =   0.0117188
        k(  155) = (  -0.0625000  -0.3750000   0.5000000), wk =   0.0117188
        k(  156) = (  -0.0625000   0.5625000  -0.4375000), wk =   0.0058594
        k(  157) = (  -0.1250000   0.1250000   0.0625000), wk =   0.0058594
        k(  158) = (  -0.1250000  -0.1250000   0.3125000), wk =   0.0058594
        k(  159) = (  -0.1250000  -0.1875000   0.3750000), wk =   0.0117188
        k(  160) = (  -0.1250000  -0.2500000   0.4375000), wk =   0.0117188
        k(  161) = (  -0.1250000  -0.3125000   0.5000000), wk =   0.0117188
        k(  162) = (  -0.1250000   0.6250000  -0.4375000), wk =   0.0117188
        k(  163) = (  -0.1875000   0.1875000   0.0625000), wk =   0.0058594
        k(  164) = (  -0.1875000   0.1250000   0.1250000), wk =   0.0058594
        k(  165) = (  -0.1875000  -0.1875000   0.4375000), wk =   0.0058594
        k(  166) = (  -0.1875000  -0.2500000   0.5000000), wk =   0.0117188
        k(  167) = (  -0.1875000   0.6875000  -0.4375000), wk =   0.0117188
        k(  168) = (  -0.1875000   0.6250000  -0.3750000), wk =   0.0058594
        k(  169) = (  -0.2500000   0.2500000   0.0625000), wk =   0.0058594
        k(  170) = (  -0.2500000   0.1875000   0.1250000), wk =   0.0117188
        k(  171) = (  -0.2500000   0.7500000  -0.4375000), wk =   0.0058594
        k(  172) = (  -0.2500000   0.6875000  -0.3750000), wk =   0.0117188
        k(  173) = (  -0.3125000   0.3125000   0.0625000), wk =   0.0058594
        k(  174) = (  -0.3125000   0.2500000   0.1250000), wk =   0.0117188
        k(  175) = (  -0.3125000   0.1875000   0.1875000), wk =   0.0058594
        k(  176) = (  -0.3125000   0.6875000  -0.3125000), wk =   0.0019531
        k(  177) = (  -0.3750000   0.3750000   0.0625000), wk =   0.0058594
        k(  178) = (  -0.3750000   0.3125000   0.1250000), wk =   0.0117188
        k(  179) = (  -0.3750000   0.2500000   0.1875000), wk =   0.0117188
        k(  180) = (  -0.4375000   0.4375000   0.0625000), wk =   0.0058594
        k(  181) = (  -0.4375000   0.3750000   0.1250000), wk =   0.0117188
        k(  182) = (  -0.4375000   0.3125000   0.1875000), wk =   0.0117188
        k(  183) = (  -0.4375000   0.2500000   0.2500000), wk =   0.0058594
        k(  184) = (   0.5000000  -0.5000000   0.0625000), wk =   0.0029297
        k(  185) = (   0.5000000  -0.5625000   0.1250000), wk =   0.0117188
        k(  186) = (   0.5000000  -0.6250000   0.1875000), wk =   0.0117188
        k(  187) = (   0.5000000  -0.6875000   0.2500000), wk =   0.0117188
        k(  188) = (   0.4375000  -0.5625000   0.1875000), wk =   0.0058594
        k(  189) = (   0.4375000  -0.6250000   0.2500000), wk =   0.0117188
        k(  190) = (   0.4375000  -0.6875000   0.3125000), wk =   0.0058594
        k(  191) = (   0.3750000  -0.6250000   0.3125000), wk =   0.0058594
        k(  192) = (   0.0000000   0.0000000   0.1875000), wk =   0.0014648
        k(  193) = (   0.0000000  -0.0625000   0.2500000), wk =   0.0058594
        k(  194) = (   0.0000000  -0.1250000   0.3125000), wk =   0.0058594
        k(  195) = (   0.0000000  -0.1875000   0.3750000), wk =   0.0058594
        k(  196) = (   0.0000000  -0.2500000   0.4375000), wk =   0.0058594
        k(  197) = (   0.0000000  -0.3125000   0.5000000), wk =   0.0058594
        k(  198) = (   0.0000000  -0.3750000   0.5625000), wk =   0.0058594
        k(  199) = (  -0.0625000  -0.0625000   0.3125000), wk =   0.0058594
        k(  200) = (  -0.0625000  -0.1250000   0.3750000), wk =   0.0117188
        k(  201) = (  -0.0625000  -0.1875000   0.4375000), wk =   0.0117188
        k(  202) = (  -0.0625000  -0.2500000   0.5000000), wk =   0.0117188
        k(  203) = (  -0.0625000  -0.3125000   0.5625000), wk =   0.0117188
        k(  204) = (  -0.0625000   0.6250000  -0.3750000), wk =   0.0058594
        k(  205) = (  -0.1250000  -0.1250000   0.4375000), wk =   0.0058594
        k(  206) = (  -0.1250000  -0.1875000   0.5000000), wk =   0.0117188
        k(  207) = (  -0.1250000  -0.2500000   0.5625000), wk =   0.0117188
        k(  208) = (  -0.1250000   0.6875000  -0.3750000), wk =   0.0117188
        k(  209) = (  -0.1875000   0.1875000   0.1875000), wk =   0.0019531
        k(  210) = (  -0.1875000  -0.1875000   0.5625000), wk =   0.0058594
        k(  211) = (  -0.1875000   0.7500000  -0.3750000), wk =   0.0117188
        k(  212) = (  -0.1875000   0.6875000  -0.3125000), wk =   0.0058594
        k(  213) = (  -0.2500000   0.2500000   0.1875000), wk =   0.0058594
        k(  214) = (  -0.2500000   0.7500000  -0.3125000), wk =   0.0058594
        k(  215) = (  -0.3125000   0.3125000   0.1875000), wk =   0.0058594
        k(  216) = (  -0.3125000   0.2500000   0.2500000), wk =   0.0058594
        k(  217) = (  -0.3750000   0.3750000   0.1875000), wk =   0.0058594
        k(  218) = (  -0.3750000   0.3125000   0.2500000), wk =   0.0117188
        k(  219) = (   0.5625000  -0.5625000   0.1875000), wk =   0.0058594
        k(  220) = (   0.5625000  -0.6250000   0.2500000), wk =   0.0117188
        k(  221) = (   0.5625000  -0.6875000   0.3125000), wk =   0.0058594
        k(  222) = (   0.5000000  -0.5000000   0.1875000), wk =   0.0029297
        k(  223) = (   0.5000000  -0.5625000   0.2500000), wk =   0.0117188
        k(  224) = (   0.5000000  -0.6250000   0.3125000), wk =   0.0117188
        k(  225) = (   0.4375000  -0.5625000   0.3125000), wk =   0.0058594
        k(  226) = (   0.4375000  -0.6250000   0.3750000), wk =   0.0058594
        k(  227) = (   0.0000000   0.0000000   0.3125000), wk =   0.0014648
        k(  228) = (   0.0000000  -0.0625000   0.3750000), wk =   0.0058594
        k(  229) = (   0.0000000  -0.1250000   0.4375000), wk =   0.0058594
        k(  230) = (   0.0000000  -0.1875000   0.5000000), wk =   0.0058594
        k(  231) = (   0.0000000  -0.2500000   0.5625000), wk =   0.0058594
        k(  232) = (   0.0000000  -0.3125000   0.6250000), wk =   0.0058594
        k(  233) = (  -0.0625000  -0.0625000   0.4375000), wk =   0.0058594
        k(  234) = (  -0.0625000  -0.1250000   0.5000000), wk =   0.0117188
        k(  235) = (  -0.0625000  -0.1875000   0.5625000), wk =   0.0117188
        k(  236) = (  -0.0625000  -0.2500000   0.6250000), wk =   0.0117188
        k(  237) = (  -0.0625000   0.6875000  -0.3125000), wk =   0.0058594
        k(  238) = (  -0.1250000  -0.1250000   0.5625000), wk =   0.0058594
        k(  239) = (  -0.1250000  -0.1875000   0.6250000), wk =   0.0117188
        k(  240) = (  -0.1250000   0.7500000  -0.3125000), wk =   0.0117188
        k(  241) = (  -0.1875000   0.8125000  -0.3125000), wk =   0.0058594
        k(  242) = (  -0.1875000   0.7500000  -0.2500000), wk =   0.0058594
        k(  243) = (  -0.3125000   0.3125000   0.3125000), wk =   0.0019531
        k(  244) = (   0.6250000  -0.6250000   0.3125000), wk =   0.0058594
        k(  245) = (   0.5625000  -0.5625000   0.3125000), wk =   0.0058594
        k(  246) = (   0.5625000  -0.6250000   0.3750000), wk =   0.0058594
        k(  247) = (   0.5000000  -0.5000000   0.3125000), wk =   0.0029297
        k(  248) = (   0.5000000  -0.5625000   0.3750000), wk =   0.0117188
        k(  249) = (   0.4375000  -0.5625000   0.4375000), wk =   0.0019531
        k(  250) = (   0.0000000   0.0000000   0.4375000), wk =   0.0014648
        k(  251) = (   0.0000000  -0.0625000   0.5000000), wk =   0.0058594
        k(  252) = (   0.0000000  -0.1250000   0.5625000), wk =   0.0058594
        k(  253) = (   0.0000000  -0.1875000   0.6250000), wk =   0.0058594
        k(  254) = (   0.0000000  -0.2500000   0.6875000), wk =   0.0058594
        k(  255) = (  -0.0625000  -0.0625000   0.5625000), wk =   0.0058594
        k(  256) = (  -0.0625000  -0.1250000   0.6250000), wk =   0.0117188
        k(  257) = (  -0.0625000  -0.1875000   0.6875000), wk =   0.0117188
        k(  258) = (  -0.0625000   0.7500000  -0.2500000), wk =   0.0058594
        k(  259) = (  -0.1250000  -0.1250000   0.6875000), wk =   0.0058594
        k(  260) = (  -0.1250000   0.8125000  -0.2500000), wk =   0.0117188
        k(  261) = (  -0.1875000   0.8125000  -0.1875000), wk =   0.0019531
        k(  262) = (   0.5625000  -0.5625000   0.4375000), wk =   0.0019531
        k(  263) = (   0.5000000  -0.5000000   0.4375000), wk =   0.0029297
        k(  264) = (   0.0000000   0.0000000   0.5625000), wk =   0.0014648
        k(  265) = (   0.0000000  -0.0625000   0.6250000), wk =   0.0058594
        k(  266) = (   0.0000000  -0.1250000   0.6875000), wk =   0.0058594
        k(  267) = (   0.0000000  -0.1875000   0.7500000), wk =   0.0058594
        k(  268) = (  -0.0625000  -0.0625000   0.6875000), wk =   0.0058594
        k(  269) = (  -0.0625000  -0.1250000   0.7500000), wk =   0.0117188
        k(  270) = (  -0.0625000   0.8125000  -0.1875000), wk =   0.0058594
        k(  271) = (  -0.1250000   0.8750000  -0.1875000), wk =   0.0058594
        k(  272) = (   0.0000000   0.0000000   0.6875000), wk =   0.0014648
        k(  273) = (   0.0000000  -0.0625000   0.7500000), wk =   0.0058594
        k(  274) = (   0.0000000  -0.1250000   0.8125000), wk =   0.0058594
        k(  275) = (  -0.0625000  -0.0625000   0.8125000), wk =   0.0058594
        k(  276) = (  -0.0625000   0.8750000  -0.1250000), wk =   0.0058594
        k(  277) = (   0.0000000   0.0000000   0.8125000), wk =   0.0014648
        k(  278) = (   0.0000000  -0.0625000   0.8750000), wk =   0.0058594
        k(  279) = (  -0.0625000   0.9375000  -0.0625000), wk =   0.0019531
        k(  280) = (   0.0000000   0.0000000   0.9375000), wk =   0.0014648

                       cryst. coord.
        k(    1) = (   0.0312500   0.0312500   0.0312500), wk =   0.0014648
        k(    2) = (   0.0312500   0.0312500   0.0937500), wk =   0.0058594
        k(    3) = (   0.0312500   0.0312500   0.1562500), wk =   0.0058594
        k(    4) = (   0.0312500   0.0312500   0.2187500), wk =   0.0058594
        k(    5) = (   0.0312500   0.0312500   0.2812500), wk =   0.0058594
        k(    6) = (   0.0312500   0.0312500   0.3437500), wk =   0.0058594
        k(    7) = (   0.0312500   0.0312500   0.4062500), wk =   0.0058594
        k(    8) = (   0.0312500   0.0312500   0.4687500), wk =   0.0058594
        k(    9) = (   0.0312500   0.0937500   0.0312500), wk =   0.0019531
        k(   10) = (   0.0312500   0.0937500   0.1562500), wk =   0.0058594
        k(   11) = (   0.0312500   0.0937500   0.2187500), wk =   0.0117188
        k(   12) = (   0.0312500   0.0937500   0.2812500), wk =   0.0117188
        k(   13) = (   0.0312500   0.0937500   0.3437500), wk =   0.0117188
        k(   14) = (   0.0312500   0.0937500   0.4062500), wk =   0.0117188
        k(   15) = (   0.0312500   0.0937500   0.4687500), wk =   0.0117188
        k(   16) = (   0.0312500   0.0937500  -0.4687500), wk =   0.0058594
        k(   17) = (   0.0312500   0.1562500   0.0312500), wk =   0.0058594
        k(   18) = (   0.0312500   0.1562500   0.2812500), wk =   0.0058594
        k(   19) = (   0.0312500   0.1562500   0.3437500), wk =   0.0117188
        k(   20) = (   0.0312500   0.1562500   0.4062500), wk =   0.0117188
        k(   21) = (   0.0312500   0.1562500   0.4687500), wk =   0.0117188
        k(   22) = (   0.0312500   0.1562500  -0.4687500), wk =   0.0117188
        k(   23) = (   0.0312500   0.2187500   0.0312500), wk =   0.0058594
        k(   24) = (   0.0312500   0.2187500   0.0937500), wk =   0.0058594
        k(   25) = (   0.0312500   0.2187500   0.4062500), wk =   0.0058594
        k(   26) = (   0.0312500   0.2187500   0.4687500), wk =   0.0117188
        k(   27) = (   0.0312500   0.2187500  -0.4687500), wk =   0.0117188
        k(   28) = (   0.0312500   0.2187500  -0.4062500), wk =   0.0058594
        k(   29) = (   0.0312500   0.2812500   0.0312500), wk =   0.0058594
        k(   30) = (   0.0312500   0.2812500   0.0937500), wk =   0.0117188
        k(   31) = (   0.0312500   0.2812500  -0.4687500), wk =   0.0058594
        k(   32) = (   0.0312500   0.2812500  -0.4062500), wk =   0.0117188
        k(   33) = (   0.0312500   0.3437500   0.0312500), wk =   0.0058594
        k(   34) = (   0.0312500   0.3437500   0.0937500), wk =   0.0117188
        k(   35) = (   0.0312500   0.3437500   0.1562500), wk =   0.0058594
        k(   36) = (   0.0312500   0.3437500  -0.3437500), wk =   0.0019531
        k(   37) = (   0.0312500   0.4062500   0.0312500), wk =   0.0058594
        k(   38) = (   0.0312500   0.4062500   0.0937500), wk =   0.0117188
        k(   39) = (   0.0312500   0.4062500   0.1562500), wk =   0.0117188
        k(   40) = (   0.0312500   0.4687500   0.0312500), wk =   0.0058594
        k(   41) = (   0.0312500   0.4687500   0.0937500), wk =   0.0117188
        k(   42) = (   0.0312500   0.4687500   0.1562500), wk =   0.0117188
        k(   43) = (   0.0312500   0.4687500   0.2187500), wk =   0.0058594
        k(   44) = (   0.0312500  -0.4687500   0.0312500), wk =   0.0029297
        k(   45) = (   0.0312500  -0.4687500   0.0937500), wk =   0.0117188
        k(   46) = (   0.0312500  -0.4687500   0.1562500), wk =   0.0117188
        k(   47) = (   0.0312500  -0.4687500   0.2187500), wk =   0.0117188
        k(   48) = (   0.0312500  -0.4062500   0.1562500), wk =   0.0058594
        k(   49) = (   0.0312500  -0.4062500   0.2187500), wk =   0.0117188
        k(   50) = (   0.0312500  -0.4062500   0.2812500), wk =   0.0058594
        k(   51) = (   0.0312500  -0.3437500   0.2812500), wk =   0.0058594
        k(   52) = (   0.0937500   0.0937500   0.0937500), wk =   0.0014648
        k(   53) = (   0.0937500   0.0937500   0.1562500), wk =   0.0058594
        k(   54) = (   0.0937500   0.0937500   0.2187500), wk =   0.0058594
        k(   55) = (   0.0937500   0.0937500   0.2812500), wk =   0.0058594
        k(   56) = (   0.0937500   0.0937500   0.3437500), wk =   0.0058594
        k(   57) = (   0.0937500   0.0937500   0.4062500), wk =   0.0058594
        k(   58) = (   0.0937500   0.0937500   0.4687500), wk =   0.0058594
        k(   59) = (   0.0937500   0.1562500   0.2187500), wk =   0.0058594
        k(   60) = (   0.0937500   0.1562500   0.2812500), wk =   0.0117188
        k(   61) = (   0.0937500   0.1562500   0.3437500), wk =   0.0117188
        k(   62) = (   0.0937500   0.1562500   0.4062500), wk =   0.0117188
        k(   63) = (   0.0937500   0.1562500   0.4687500), wk =   0.0117188
        k(   64) = (   0.0937500   0.1562500  -0.4687500), wk =   0.0058594
        k(   65) = (   0.0937500   0.2187500   0.3437500), wk =   0.0058594
        k(   66) = (   0.0937500   0.2187500   0.4062500), wk =   0.0117188
        k(   67) = (   0.0937500   0.2187500   0.4687500), wk =   0.0117188
        k(   68) = (   0.0937500   0.2187500  -0.4687500), wk =   0.0117188
        k(   69) = (   0.0937500   0.2812500   0.0937500), wk =   0.0019531
        k(   70) = (   0.0937500   0.2812500   0.4687500), wk =   0.0058594
        k(   71) = (   0.0937500   0.2812500  -0.4687500), wk =   0.0117188
        k(   72) = (   0.0937500   0.2812500  -0.4062500), wk =   0.0058594
        k(   73) = (   0.0937500   0.3437500   0.0937500), wk =   0.0058594
        k(   74) = (   0.0937500   0.3437500  -0.4062500), wk =   0.0058594
        k(   75) = (   0.0937500   0.4062500   0.0937500), wk =   0.0058594
        k(   76) = (   0.0937500   0.4062500   0.1562500), wk =   0.0058594
        k(   77) = (   0.0937500   0.4687500   0.0937500), wk =   0.0058594
        k(   78) = (   0.0937500   0.4687500   0.1562500), wk =   0.0117188
        k(   79) = (   0.0937500  -0.4687500   0.0937500), wk =   0.0058594
        k(   80) = (   0.0937500  -0.4687500   0.1562500), wk =   0.0117188
        k(   81) = (   0.0937500  -0.4687500   0.2187500), wk =   0.0058594
        k(   82) = (   0.0937500  -0.4062500   0.0937500), wk =   0.0029297
        k(   83) = (   0.0937500  -0.4062500   0.1562500), wk =   0.0117188
        k(   84) = (   0.0937500  -0.4062500   0.2187500), wk =   0.0117188
        k(   85) = (   0.0937500  -0.3437500   0.2187500), wk =   0.0058594
        k(   86) = (   0.0937500  -0.3437500   0.2812500), wk =   0.0058594
        k(   87) = (   0.1562500   0.1562500   0.1562500), wk =   0.0014648
        k(   88) = (   0.1562500   0.1562500   0.2187500), wk =   0.0058594
        k(   89) = (   0.1562500   0.1562500   0.2812500), wk =   0.0058594
        k(   90) = (   0.1562500   0.1562500   0.3437500), wk =   0.0058594
        k(   91) = (   0.1562500   0.1562500   0.4062500), wk =   0.0058594
        k(   92) = (   0.1562500   0.1562500   0.4687500), wk =   0.0058594
        k(   93) = (   0.1562500   0.2187500   0.2812500), wk =   0.0058594
        k(   94) = (   0.1562500   0.2187500   0.3437500), wk =   0.0117188
        k(   95) = (   0.1562500   0.2187500   0.4062500), wk =   0.0117188
        k(   96) = (   0.1562500   0.2187500   0.4687500), wk =   0.0117188
        k(   97) = (   0.1562500   0.2187500  -0.4687500), wk =   0.0058594
        k(   98) = (   0.1562500   0.2812500   0.4062500), wk =   0.0058594
        k(   99) = (   0.1562500   0.2812500   0.4687500), wk =   0.0117188
        k(  100) = (   0.1562500   0.2812500  -0.4687500), wk =   0.0117188
        k(  101) = (   0.1562500   0.3437500  -0.4687500), wk =   0.0058594
        k(  102) = (   0.1562500   0.3437500  -0.4062500), wk =   0.0058594
        k(  103) = (   0.1562500   0.4687500   0.1562500), wk =   0.0019531
        k(  104) = (   0.1562500  -0.4687500   0.1562500), wk =   0.0058594
        k(  105) = (   0.1562500  -0.4062500   0.1562500), wk =   0.0058594
        k(  106) = (   0.1562500  -0.4062500   0.2187500), wk =   0.0058594
        k(  107) = (   0.1562500  -0.3437500   0.1562500), wk =   0.0029297
        k(  108) = (   0.1562500  -0.3437500   0.2187500), wk =   0.0117188
        k(  109) = (   0.1562500  -0.2812500   0.2812500), wk =   0.0019531
        k(  110) = (   0.2187500   0.2187500   0.2187500), wk =   0.0014648
        k(  111) = (   0.2187500   0.2187500   0.2812500), wk =   0.0058594
        k(  112) = (   0.2187500   0.2187500   0.3437500), wk =   0.0058594
        k(  113) = (   0.2187500   0.2187500   0.4062500), wk =   0.0058594
        k(  114) = (   0.2187500   0.2187500   0.4687500), wk =   0.0058594
        k(  115) = (   0.2187500   0.2812500   0.3437500), wk =   0.0058594
        k(  116) = (   0.2187500   0.2812500   0.4062500), wk =   0.0117188
        k(  117) = (   0.2187500   0.2812500   0.4687500), wk =   0.0117188
        k(  118) = (   0.2187500   0.2812500  -0.4687500), wk =   0.0058594
        k(  119) = (   0.2187500   0.3437500   0.4687500), wk =   0.0058594
        k(  120) = (   0.2187500   0.3437500  -0.4687500), wk =   0.0117188
        k(  121) = (   0.2187500   0.4062500  -0.4062500), wk =   0.0019531
        k(  122) = (   0.2187500  -0.3437500   0.2187500), wk =   0.0019531
        k(  123) = (   0.2187500  -0.2812500   0.2187500), wk =   0.0029297
        k(  124) = (   0.2812500   0.2812500   0.2812500), wk =   0.0014648
        k(  125) = (   0.2812500   0.2812500   0.3437500), wk =   0.0058594
        k(  126) = (   0.2812500   0.2812500   0.4062500), wk =   0.0058594
        k(  127) = (   0.2812500   0.2812500   0.4687500), wk =   0.0058594
        k(  128) = (   0.2812500   0.3437500   0.4062500), wk =   0.0058594
        k(  129) = (   0.2812500   0.3437500   0.4687500), wk =   0.0117188
        k(  130) = (   0.2812500   0.3437500  -0.4687500), wk =   0.0058594
        k(  131) = (   0.2812500   0.4062500  -0.4687500), wk =   0.0058594
        k(  132) = (   0.3437500   0.3437500   0.3437500), wk =   0.0014648
        k(  133) = (   0.3437500   0.3437500   0.4062500), wk =   0.0058594
        k(  134) = (   0.3437500   0.3437500   0.4687500), wk =   0.0058594
        k(  135) = (   0.3437500   0.4062500   0.4687500), wk =   0.0058594
        k(  136) = (   0.3437500   0.4062500  -0.4687500), wk =   0.0058594
        k(  137) = (   0.4062500   0.4062500   0.4062500), wk =   0.0014648
        k(  138) = (   0.4062500   0.4062500   0.4687500), wk =   0.0058594
        k(  139) = (   0.4062500   0.4687500  -0.4687500), wk =   0.0019531
        k(  140) = (   0.4687500   0.4687500   0.4687500), wk =   0.0014648
        k(  141) = (   0.0312500   0.0312500   0.0312500), wk =   0.0014648
        k(  142) = (   0.0312500   0.0312500   0.0937500), wk =   0.0058594
        k(  143) = (   0.0312500   0.0312500   0.1562500), wk =   0.0058594
        k(  144) = (   0.0312500   0.0312500   0.2187500), wk =   0.0058594
        k(  145) = (   0.0312500   0.0312500   0.2812500), wk =   0.0058594
        k(  146) = (   0.0312500   0.0312500   0.3437500), wk =   0.0058594
        k(  147) = (   0.0312500   0.0312500   0.4062500), wk =   0.0058594
        k(  148) = (   0.0312500   0.0312500   0.4687500), wk =   0.0058594
        k(  149) = (   0.0312500   0.0937500   0.0312500), wk =   0.0019531
        k(  150) = (   0.0312500   0.0937500   0.1562500), wk =   0.0058594
        k(  151) = (   0.0312500   0.0937500   0.2187500), wk =   0.0117188
        k(  152) = (   0.0312500   0.0937500   0.2812500), wk =   0.0117188
        k(  153) = (   0.0312500   0.0937500   0.3437500), wk =   0.0117188
        k(  154) = (   0.0312500   0.0937500   0.4062500), wk =   0.0117188
        k(  155) = (   0.0312500   0.0937500   0.4687500), wk =   0.0117188
        k(  156) = (   0.0312500   0.0937500  -0.4687500), wk =   0.0058594
        k(  157) = (   0.0312500   0.1562500   0.0312500), wk =   0.0058594
        k(  158) = (   0.0312500   0.1562500   0.2812500), wk =   0.0058594
        k(  159) = (   0.0312500   0.1562500   0.3437500), wk =   0.0117188
        k(  160) = (   0.0312500   0.1562500   0.4062500), wk =   0.0117188
        k(  161) = (   0.0312500   0.1562500   0.4687500), wk =   0.0117188
        k(  162) = (   0.0312500   0.1562500  -0.4687500), wk =   0.0117188
        k(  163) = (   0.0312500   0.2187500   0.0312500), wk =   0.0058594
        k(  164) = (   0.0312500   0.2187500   0.0937500), wk =   0.0058594
        k(  165) = (   0.0312500   0.2187500   0.4062500), wk =   0.0058594
        k(  166) = (   0.0312500   0.2187500   0.4687500), wk =   0.0117188
        k(  167) = (   0.0312500   0.2187500  -0.4687500), wk =   0.0117188
        k(  168) = (   0.0312500   0.2187500  -0.4062500), wk =   0.0058594
        k(  169) = (   0.0312500   0.2812500   0.0312500), wk =   0.0058594
        k(  170) = (   0.0312500   0.2812500   0.0937500), wk =   0.0117188
        k(  171) = (   0.0312500   0.2812500  -0.4687500), wk =   0.0058594
        k(  172) = (   0.0312500   0.2812500  -0.4062500), wk =   0.0117188
        k(  173) = (   0.0312500   0.3437500   0.0312500), wk =   0.0058594
        k(  174) = (   0.0312500   0.3437500   0.0937500), wk =   0.0117188
        k(  175) = (   0.0312500   0.3437500   0.1562500), wk =   0.0058594
        k(  176) = (   0.0312500   0.3437500  -0.3437500), wk =   0.0019531
        k(  177) = (   0.0312500   0.4062500   0.0312500), wk =   0.0058594
        k(  178) = (   0.0312500   0.4062500   0.0937500), wk =   0.0117188
        k(  179) = (   0.0312500   0.4062500   0.1562500), wk =   0.0117188
        k(  180) = (   0.0312500   0.4687500   0.0312500), wk =   0.0058594
        k(  181) = (   0.0312500   0.4687500   0.0937500), wk =   0.0117188
        k(  182) = (   0.0312500   0.4687500   0.1562500), wk =   0.0117188
        k(  183) = (   0.0312500   0.4687500   0.2187500), wk =   0.0058594
        k(  184) = (   0.0312500  -0.4687500   0.0312500), wk =   0.0029297
        k(  185) = (   0.0312500  -0.4687500   0.0937500), wk =   0.0117188
        k(  186) = (   0.0312500  -0.4687500   0.1562500), wk =   0.0117188
        k(  187) = (   0.0312500  -0.4687500   0.2187500), wk =   0.0117188
        k(  188) = (   0.0312500  -0.4062500   0.1562500), wk =   0.0058594
        k(  189) = (   0.0312500  -0.4062500   0.2187500), wk =   0.0117188
        k(  190) = (   0.0312500  -0.4062500   0.2812500), wk =   0.0058594
        k(  191) = (   0.0312500  -0.3437500   0.2812500), wk =   0.0058594
        k(  192) = (   0.0937500   0.0937500   0.0937500), wk =   0.0014648
        k(  193) = (   0.0937500   0.0937500   0.1562500), wk =   0.0058594
        k(  194) = (   0.0937500   0.0937500   0.2187500), wk =   0.0058594
        k(  195) = (   0.0937500   0.0937500   0.2812500), wk =   0.0058594
        k(  196) = (   0.0937500   0.0937500   0.3437500), wk =   0.0058594
        k(  197) = (   0.0937500   0.0937500   0.4062500), wk =   0.0058594
        k(  198) = (   0.0937500   0.0937500   0.4687500), wk =   0.0058594
        k(  199) = (   0.0937500   0.1562500   0.2187500), wk =   0.0058594
        k(  200) = (   0.0937500   0.1562500   0.2812500), wk =   0.0117188
        k(  201) = (   0.0937500   0.1562500   0.3437500), wk =   0.0117188
        k(  202) = (   0.0937500   0.1562500   0.4062500), wk =   0.0117188
        k(  203) = (   0.0937500   0.1562500   0.4687500), wk =   0.0117188
        k(  204) = (   0.0937500   0.1562500  -0.4687500), wk =   0.0058594
        k(  205) = (   0.0937500   0.2187500   0.3437500), wk =   0.0058594
        k(  206) = (   0.0937500   0.2187500   0.4062500), wk =   0.0117188
        k(  207) = (   0.0937500   0.2187500   0.4687500), wk =   0.0117188
        k(  208) = (   0.0937500   0.2187500  -0.4687500), wk =   0.0117188
        k(  209) = (   0.0937500   0.2812500   0.0937500), wk =   0.0019531
        k(  210) = (   0.0937500   0.2812500   0.4687500), wk =   0.0058594
        k(  211) = (   0.0937500   0.2812500  -0.4687500), wk =   0.0117188
        k(  212) = (   0.0937500   0.2812500  -0.4062500), wk =   0.0058594
        k(  213) = (   0.0937500   0.3437500   0.0937500), wk =   0.0058594
        k(  214) = (   0.0937500   0.3437500  -0.4062500), wk =   0.0058594
        k(  215) = (   0.0937500   0.4062500   0.0937500), wk =   0.0058594
        k(  216) = (   0.0937500   0.4062500   0.1562500), wk =   0.0058594
        k(  217) = (   0.0937500   0.4687500   0.0937500), wk =   0.0058594
        k(  218) = (   0.0937500   0.4687500   0.1562500), wk =   0.0117188
        k(  219) = (   0.0937500  -0.4687500   0.0937500), wk =   0.0058594
        k(  220) = (   0.0937500  -0.4687500   0.1562500), wk =   0.0117188
        k(  221) = (   0.0937500  -0.4687500   0.2187500), wk =   0.0058594
        k(  222) = (   0.0937500  -0.4062500   0.0937500), wk =   0.0029297
        k(  223) = (   0.0937500  -0.4062500   0.1562500), wk =   0.0117188
        k(  224) = (   0.0937500  -0.4062500   0.2187500), wk =   0.0117188
        k(  225) = (   0.0937500  -0.3437500   0.2187500), wk =   0.0058594
        k(  226) = (   0.0937500  -0.3437500   0.2812500), wk =   0.0058594
        k(  227) = (   0.1562500   0.1562500   0.1562500), wk =   0.0014648
        k(  228) = (   0.1562500   0.1562500   0.2187500), wk =   0.0058594
        k(  229) = (   0.1562500   0.1562500   0.2812500), wk =   0.0058594
        k(  230) = (   0.1562500   0.1562500   0.3437500), wk =   0.0058594
        k(  231) = (   0.1562500   0.1562500   0.4062500), wk =   0.0058594
        k(  232) = (   0.1562500   0.1562500   0.4687500), wk =   0.0058594
        k(  233) = (   0.1562500   0.2187500   0.2812500), wk =   0.0058594
        k(  234) = (   0.1562500   0.2187500   0.3437500), wk =   0.0117188
        k(  235) = (   0.1562500   0.2187500   0.4062500), wk =   0.0117188
        k(  236) = (   0.1562500   0.2187500   0.4687500), wk =   0.0117188
        k(  237) = (   0.1562500   0.2187500  -0.4687500), wk =   0.0058594
        k(  238) = (   0.1562500   0.2812500   0.4062500), wk =   0.0058594
        k(  239) = (   0.1562500   0.2812500   0.4687500), wk =   0.0117188
        k(  240) = (   0.1562500   0.2812500  -0.4687500), wk =   0.0117188
        k(  241) = (   0.1562500   0.3437500  -0.4687500), wk =   0.0058594
        k(  242) = (   0.1562500   0.3437500  -0.4062500), wk =   0.0058594
        k(  243) = (   0.1562500   0.4687500   0.1562500), wk =   0.0019531
        k(  244) = (   0.1562500  -0.4687500   0.1562500), wk =   0.0058594
        k(  245) = (   0.1562500  -0.4062500   0.1562500), wk =   0.0058594
        k(  246) = (   0.1562500  -0.4062500   0.2187500), wk =   0.0058594
        k(  247) = (   0.1562500  -0.3437500   0.1562500), wk =   0.0029297
        k(  248) = (   0.1562500  -0.3437500   0.2187500), wk =   0.0117188
        k(  249) = (   0.1562500  -0.2812500   0.2812500), wk =   0.0019531
        k(  250) = (   0.2187500   0.2187500   0.2187500), wk =   0.0014648
        k(  251) = (   0.2187500   0.2187500   0.2812500), wk =   0.0058594
        k(  252) = (   0.2187500   0.2187500   0.3437500), wk =   0.0058594
        k(  253) = (   0.2187500   0.2187500   0.4062500), wk =   0.0058594
        k(  254) = (   0.2187500   0.2187500   0.4687500), wk =   0.0058594
        k(  255) = (   0.2187500   0.2812500   0.3437500), wk =   0.0058594
        k(  256) = (   0.2187500   0.2812500   0.4062500), wk =   0.0117188
        k(  257) = (   0.2187500   0.2812500   0.4687500), wk =   0.0117188
        k(  258) = (   0.2187500   0.2812500  -0.4687500), wk =   0.0058594
        k(  259) = (   0.2187500   0.3437500   0.4687500), wk =   0.0058594
        k(  260) = (   0.2187500   0.3437500  -0.4687500), wk =   0.0117188
        k(  261) = (   0.2187500   0.4062500  -0.4062500), wk =   0.0019531
        k(  262) = (   0.2187500  -0.3437500   0.2187500), wk =   0.0019531
        k(  263) = (   0.2187500  -0.2812500   0.2187500), wk =   0.0029297
        k(  264) = (   0.2812500   0.2812500   0.2812500), wk =   0.0014648
        k(  265) = (   0.2812500   0.2812500   0.3437500), wk =   0.0058594
        k(  266) = (   0.2812500   0.2812500   0.4062500), wk =   0.0058594
        k(  267) = (   0.2812500   0.2812500   0.4687500), wk =   0.0058594
        k(  268) = (   0.2812500   0.3437500   0.4062500), wk =   0.0058594
        k(  269) = (   0.2812500   0.3437500   0.4687500), wk =   0.0117188
        k(  270) = (   0.2812500   0.3437500  -0.4687500), wk =   0.0058594
        k(  271) = (   0.2812500   0.4062500  -0.4687500), wk =   0.0058594
        k(  272) = (   0.3437500   0.3437500   0.3437500), wk =   0.0014648
        k(  273) = (   0.3437500   0.3437500   0.4062500), wk =   0.0058594
        k(  274) = (   0.3437500   0.3437500   0.4687500), wk =   0.0058594
        k(  275) = (   0.3437500   0.4062500   0.4687500), wk =   0.0058594
        k(  276) = (   0.3437500   0.4062500  -0.4687500), wk =   0.0058594
        k(  277) = (   0.4062500   0.4062500   0.4062500), wk =   0.0014648
        k(  278) = (   0.4062500   0.4062500   0.4687500), wk =   0.0058594
        k(  279) = (   0.4062500   0.4687500  -0.4687500), wk =   0.0019531
        k(  280) = (   0.4687500   0.4687500   0.4687500), wk =   0.0014648

     Dense  grid:     3151 G-vectors     FFT dimensions: (  20,  20,  20)

     Largest allocated arrays     est. size (Mb)     dimensions
        Kohn-Sham Wavefunctions         0.06 Mb     (     420,   10)
        NL pseudopotentials             0.05 Mb     (     420,    8)
        Each V/rho on FFT grid          0.24 Mb     (    8000,   2)
        Each G-vector array             0.02 Mb     (    3151)
        G-vector shells                 0.00 Mb     (      62)
     Largest temporary arrays     est. size (Mb)     dimensions
        Auxiliary wavefunctions         0.26 Mb     (     420,   40)
        Each subspace H/S matrix        0.02 Mb     (      40,   40)
        Each <psi_i|beta_j> matrix      0.00 Mb     (       8,   10)

     Check: negative/imaginary core charge=   -0.000019    0.000000

     The potential is recalculated from file :
     ./Fe_nscf_e45_k16_nb10.save/charge-density.dat

     Starting wfc are    9 randomized atomic wfcs +    1 random wfc

     Band Structure Calculation
     Davidson diagonalization with overlap

     Computing kpt #:     1
     total cpu time spent up to now is        0.5 secs

     Computing kpt #:     2
     total cpu time spent up to now is        0.6 secs

     Computing kpt #:     3
     total cpu time spent up to now is        0.6 secs

     Computing kpt #:     4
     total cpu time spent up to now is        0.7 secs

     Computing kpt #:     5
     total cpu time spent up to now is        0.8 secs

     Computing kpt #:     6
     total cpu time spent up to now is        0.8 secs

     Computing kpt #:     7
     total cpu time spent up to now is        0.9 secs

     Computing kpt #:     8
     total cpu time spent up to now is        1.0 secs

     Computing kpt #:     9
     total cpu time spent up to now is        1.1 secs

     Computing kpt #:    10
     total cpu time spent up to now is        1.2 secs

     Computing kpt #:    11
     total cpu time spent up to now is        1.3 secs

     Computing kpt #:    12
     total cpu time spent up to now is        1.5 secs

     Computing kpt #:    13
     total cpu time spent up to now is        1.7 secs

     Computing kpt #:    14
     total cpu time spent up to now is        1.8 secs

     Computing kpt #:    15
     total cpu time spent up to now is        1.9 secs

     Computing kpt #:    16
     total cpu time spent up to now is        2.0 secs

     Computing kpt #:    17
     total cpu time spent up to now is        2.1 secs

     Computing kpt #:    18
     total cpu time spent up to now is        2.2 secs

     Computing kpt #:    19
     total cpu time spent up to now is        2.3 secs

     Computing kpt #:    20
     total cpu time spent up to now is        2.3 secs

     Computing kpt #:    21
     total cpu time spent up to now is        2.4 secs

     Computing kpt #:    22
     total cpu time spent up to now is        2.5 secs

     Computing kpt #:    23
     total cpu time spent up to now is        2.6 secs

     Computing kpt #:    24
     total cpu time spent up to now is        2.7 secs

     Computing kpt #:    25
     total cpu time spent up to now is        2.8 secs

     Computing kpt #:    26
     total cpu time spent up to now is        2.9 secs

     Computing kpt #:    27
     total cpu time spent up to now is        2.9 secs

     Computing kpt #:    28
     total cpu time spent up to now is        3.0 secs

     Computing kpt #:    29
     total cpu time spent up to now is        3.1 secs

     Computing kpt #:    30
     total cpu time spent up to now is        3.2 secs

     Computing kpt #:    31
     total cpu time spent up to now is        3.3 secs

     Computing kpt #:    32
     total cpu time spent up to now is        3.3 secs

     Computing kpt #:    33
     total cpu time spent up to now is        3.4 secs

     Computing kpt #:    34
     total cpu time spent up to now is        3.5 secs

     Computing kpt #:    35
     total cpu time spent up to now is        3.6 secs

     Computing kpt #:    36
     total cpu time spent up to now is        3.7 secs

     Computing kpt #:    37
     total cpu time spent up to now is        3.7 secs

     Computing kpt #:    38
     total cpu time spent up to now is        3.8 secs

     Computing kpt #:    39
     total cpu time spent up to now is        3.9 secs

     Computing kpt #:    40
     total cpu time spent up to now is        3.9 secs

     Computing kpt #:    41
     total cpu time spent up to now is        3.9 secs

     Computing kpt #:    42
     total cpu time spent up to now is        4.0 secs

     Computing kpt #:    43
     total cpu time spent up to now is        4.0 secs

     Computing kpt #:    44
     total cpu time spent up to now is        4.1 secs

     Computing kpt #:    45
     total cpu time spent up to now is        4.1 secs

     Computing kpt #:    46
     total cpu time spent up to now is        4.1 secs

     Computing kpt #:    47
     total cpu time spent up to now is        4.2 secs

     Computing kpt #:    48
     total cpu time spent up to now is        4.2 secs

     Computing kpt #:    49
     total cpu time spent up to now is        4.2 secs

     Computing kpt #:    50
     total cpu time spent up to now is        4.3 secs

     Computing kpt #:    51
     total cpu time spent up to now is        4.3 secs

     Computing kpt #:    52
     total cpu time spent up to now is        4.4 secs

     Computing kpt #:    53
     total cpu time spent up to now is        4.5 secs

     Computing kpt #:    54
     total cpu time spent up to now is        4.5 secs

     Computing kpt #:    55
     total cpu time spent up to now is        4.6 secs

     Computing kpt #:    56
     total cpu time spent up to now is        4.6 secs

     Computing kpt #:    57
     total cpu time spent up to now is        4.7 secs

     Computing kpt #:    58
     total cpu time spent up to now is        4.7 secs

     Computing kpt #:    59
     total cpu time spent up to now is        4.7 secs

     Computing kpt #:    60
     total cpu time spent up to now is        4.8 secs

     Computing kpt #:    61
     total cpu time spent up to now is        4.8 secs

     Computing kpt #:    62
     total cpu time spent up to now is        4.9 secs

     Computing kpt #:    63
     total cpu time spent up to now is        4.9 secs

     Computing kpt #:    64
     total cpu time spent up to now is        4.9 secs

     Computing kpt #:    65
     total cpu time spent up to now is        5.0 secs

     Computing kpt #:    66
     total cpu time spent up to now is        5.0 secs

     Computing kpt #:    67
     total cpu time spent up to now is        5.1 secs

     Computing kpt #:    68
     total cpu time spent up to now is        5.2 secs

     Computing kpt #:    69
     total cpu time spent up to now is        5.2 secs

     Computing kpt #:    70
     total cpu time spent up to now is        5.3 secs

     Computing kpt #:    71
     total cpu time spent up to now is        5.4 secs

     Computing kpt #:    72
     total cpu time spent up to now is        5.5 secs

     Computing kpt #:    73
     total cpu time spent up to now is        5.5 secs

     Computing kpt #:    74
     total cpu time spent up to now is        5.6 secs

     Computing kpt #:    75
     total cpu time spent up to now is        5.7 secs

     Computing kpt #:    76
     total cpu time spent up to now is        5.8 secs

     Computing kpt #:    77
     total cpu time spent up to now is        5.9 secs

     Computing kpt #:    78
     total cpu time spent up to now is        5.9 secs

     Computing kpt #:    79
     total cpu time spent up to now is        6.0 secs

     Computing kpt #:    80
     total cpu time spent up to now is        6.1 secs

     Computing kpt #:    81
     total cpu time spent up to now is        6.2 secs

     Computing kpt #:    82
     total cpu time spent up to now is        6.2 secs

     Computing kpt #:    83
     total cpu time spent up to now is        6.3 secs

     Computing kpt #:    84
     total cpu time spent up to now is        6.3 secs

     Computing kpt #:    85
     total cpu time spent up to now is        6.4 secs

     Computing kpt #:    86
     total cpu time spent up to now is        6.5 secs

     Computing kpt #:    87
     total cpu time spent up to now is        6.5 secs

     Computing kpt #:    88
     total cpu time spent up to now is        6.6 secs

     Computing kpt #:    89
     total cpu time spent up to now is        6.6 secs

     Computing kpt #:    90
     total cpu time spent up to now is        6.6 secs

     Computing kpt #:    91
     total cpu time spent up to now is        6.7 secs

     Computing kpt #:    92
     total cpu time spent up to now is        6.7 secs

     Computing kpt #:    93
     total cpu time spent up to now is        6.7 secs

     Computing kpt #:    94
     total cpu time spent up to now is        6.8 secs

     Computing kpt #:    95
     total cpu time spent up to now is        6.8 secs

     Computing kpt #:    96
     total cpu time spent up to now is        6.9 secs

     Computing kpt #:    97
     total cpu time spent up to now is        6.9 secs

     Computing kpt #:    98
     total cpu time spent up to now is        7.0 secs

     Computing kpt #:    99
     total cpu time spent up to now is        7.0 secs

     Computing kpt #:   100
     total cpu time spent up to now is        7.0 secs

     Computing kpt #:   101
     total cpu time spent up to now is        7.1 secs

     Computing kpt #:   102
     total cpu time spent up to now is        7.1 secs

     Computing kpt #:   103
     total cpu time spent up to now is        7.2 secs

     Computing kpt #:   104
     total cpu time spent up to now is        7.3 secs

     Computing kpt #:   105
     total cpu time spent up to now is        7.3 secs

     Computing kpt #:   106
     total cpu time spent up to now is        7.4 secs

     Computing kpt #:   107
     total cpu time spent up to now is        7.4 secs

     Computing kpt #:   108
     total cpu time spent up to now is        7.5 secs

     Computing kpt #:   109
     total cpu time spent up to now is        7.5 secs

     Computing kpt #:   110
     total cpu time spent up to now is        7.6 secs

     Computing kpt #:   111
     total cpu time spent up to now is        7.6 secs

     Computing kpt #:   112
     total cpu time spent up to now is        7.6 secs

     Computing kpt #:   113
     total cpu time spent up to now is        7.8 secs

     Computing kpt #:   114
     total cpu time spent up to now is        7.9 secs

     Computing kpt #:   115
     total cpu time spent up to now is        8.0 secs

     Computing kpt #:   116
     total cpu time spent up to now is        8.0 secs

     Computing kpt #:   117
     total cpu time spent up to now is        8.1 secs

     Computing kpt #:   118
     total cpu time spent up to now is        8.1 secs

     Computing kpt #:   119
     total cpu time spent up to now is        8.2 secs

     Computing kpt #:   120
     total cpu time spent up to now is        8.2 secs

     Computing kpt #:   121
     total cpu time spent up to now is        8.2 secs

     Computing kpt #:   122
     total cpu time spent up to now is        8.3 secs

     Computing kpt #:   123
     total cpu time spent up to now is        8.4 secs

     Computing kpt #:   124
     total cpu time spent up to now is        8.4 secs

     Computing kpt #:   125
     total cpu time spent up to now is        8.4 secs

     Computing kpt #:   126
     total cpu time spent up to now is        8.6 secs

     Computing kpt #:   127
     total cpu time spent up to now is        8.7 secs

     Computing kpt #:   128
     total cpu time spent up to now is        8.9 secs

     Computing kpt #:   129
     total cpu time spent up to now is        9.0 secs

     Computing kpt #:   130
     total cpu time spent up to now is        9.0 secs

     Computing kpt #:   131
     total cpu time spent up to now is        9.1 secs

     Computing kpt #:   132
     total cpu time spent up to now is        9.2 secs

     Computing kpt #:   133
     total cpu time spent up to now is        9.2 secs

     Computing kpt #:   134
     total cpu time spent up to now is        9.3 secs

     Computing kpt #:   135
     total cpu time spent up to now is        9.3 secs

     Computing kpt #:   136
     total cpu time spent up to now is        9.3 secs

     Computing kpt #:   137
     total cpu time spent up to now is        9.4 secs

     Computing kpt #:   138
     total cpu time spent up to now is        9.4 secs

     Computing kpt #:   139
     total cpu time spent up to now is        9.5 secs

     Computing kpt #:   140
     total cpu time spent up to now is        9.5 secs

     Computing kpt #:   141
     total cpu time spent up to now is        9.5 secs

     Computing kpt #:   142
     total cpu time spent up to now is        9.6 secs

     Computing kpt #:   143
     total cpu time spent up to now is        9.6 secs

     Computing kpt #:   144
     total cpu time spent up to now is        9.7 secs

     Computing kpt #:   145
     total cpu time spent up to now is        9.7 secs

     Computing kpt #:   146
[...]
     0.0000   0.0000

          k =-0.3750 0.3125 0.2500 (   404 PWs)   bands (ev):

    10.1247  12.4545  12.5308  15.6123  15.8834  17.1099  27.0832  28.9259
    30.9284  43.8580

     occupation numbers 
     1.0000   1.0000   1.0000   0.0000   0.0000   0.0000   0.0000   0.0000
     0.0000   0.0000

          k = 0.5625-0.5625 0.1875 (   410 PWs)   bands (ev):

    10.6990  12.3688  12.9294  15.6217  15.8847  17.6990  23.4584  30.0751
    30.7129  43.1194

     occupation numbers 
     1.0000   1.0000   0.9996   0.0000   0.0000   0.0000   0.0000   0.0000
     0.0000   0.0000

          k = 0.5625-0.6250 0.2500 (   405 PWs)   bands (ev):

    10.8655  12.3358  12.5550  15.6783  15.9310  18.0248  24.6329  28.2273
    30.2310  44.3348

     occupation numbers 
     1.0000   1.0000   1.0000   0.0000   0.0000   0.0000   0.0000   0.0000
     0.0000   0.0000

          k = 0.5625-0.6875 0.3125 (   407 PWs)   bands (ev):

    10.9550  12.2565  12.4218  15.6860  15.8930  18.1281  26.1139  26.3981
    30.1683  44.8632

     occupation numbers 
     1.0000   1.0000   1.0000   0.0000   0.0000   0.0000   0.0000   0.0000
     0.0000   0.0000

          k = 0.5000-0.5000 0.1875 (   410 PWs)   bands (ev):

    10.8390  12.3255  13.1148  15.6245  15.9352  18.0727  22.5883  29.9026
    30.4751  43.1627

     occupation numbers 
     1.0000   1.0000   0.9951   0.0000   0.0000   0.0000   0.0000   0.0000
     0.0000   0.0000

          k = 0.5000-0.5625 0.2500 (   404 PWs)   bands (ev):

    11.1889  12.2938  12.7352  15.7369  15.9364  18.8904  22.9363  27.8588
    29.8735  44.5341

     occupation numbers 
     1.0000   1.0000   1.0000   0.0000   0.0000   0.0000   0.0000   0.0000
     0.0000   0.0000

          k = 0.5000-0.6250 0.3125 (   405 PWs)   bands (ev):

    11.4565  12.2065  12.4356  15.7822  15.9338  19.3409  23.9382  25.7551
    29.7265  45.5389

     occupation numbers 
     1.0000   1.0000   1.0000   0.0000   0.0000   0.0000   0.0000   0.0000
     0.0000   0.0000

          k = 0.4375-0.5625 0.3125 (   408 PWs)   bands (ev):

    11.5684  12.2104  12.4805  15.7865  15.8934  20.1972  22.6904  25.5664
    29.5803  45.7833

     occupation numbers 
     1.0000   1.0000   1.0000   0.0000   0.0000   0.0000   0.0000   0.0000
     0.0000   0.0000

          k = 0.4375-0.6250 0.3750 (   404 PWs)   bands (ev):

    11.8104  12.1932  12.3101  15.8783  15.8950  20.9270  22.9456  24.2054
    29.4925  46.6158

     occupation numbers 
     1.0000   1.0000   1.0000   0.0000   0.0000   0.0000   0.0000   0.0000
     0.0000   0.0000

          k = 0.0000 0.0000 0.3125 (   398 PWs)   bands (ev):

     7.1025  13.7137  13.7137  14.2902  14.5675  16.0214  35.2185  36.6414
    36.6414  36.7562

     occupation numbers 
     1.0000   0.5361   0.5361   0.0105   0.0003   0.0000   0.0000   0.0000
     0.0000   0.0000

          k = 0.0000-0.0625 0.3750 (   396 PWs)   bands (ev):

     7.9202  13.6096  13.6215  14.3335  14.6256  16.2922  33.0247  34.9002
    35.0947  37.1302

     occupation numbers 
     1.0000   0.6996   0.6822   0.0064   0.0001   0.0000   0.0000   0.0000
     0.0000   0.0000

          k = 0.0000-0.1250 0.4375 (   410 PWs)   bands (ev):

     8.8824  13.2210  13.4086  14.4444  15.0438  16.2398  29.9350  33.5910
    33.9585  38.0562

     occupation numbers 
     1.0000   0.9838   0.9129   0.0016   0.0000   0.0000   0.0000   0.0000
     0.0000   0.0000

          k = 0.0000-0.1875 0.5000 (   408 PWs)   bands (ev):

     9.8511  12.8968  13.2466  14.7059  15.6461  16.4939  27.0558  32.2664
    33.1959  39.2905

     occupation numbers 
     1.0000   0.9998   0.9790   0.0000   0.0000   0.0000   0.0000   0.0000
     0.0000   0.0000

          k = 0.0000-0.2500 0.5625 (   407 PWs)   bands (ev):

    10.5930  12.7388  13.1193  14.8970  16.1620  17.0250  24.5723  31.2518
    32.6584  40.7486

     occupation numbers 
     1.0000   1.0000   0.9948   0.0000   0.0000   0.0000   0.0000   0.0000
     0.0000   0.0000

          k = 0.0000-0.3125 0.6250 (   409 PWs)   bands (ev):

    10.9586  12.7042  13.0376  14.9494  16.4506  17.7165  22.8687  30.6922
    32.3859  42.2307

     occupation numbers 
     1.0000   1.0000   0.9981   0.0000   0.0000   0.0000   0.0000   0.0000
     0.0000   0.0000

          k =-0.0625-0.0625 0.4375 (   407 PWs)   bands (ev):

     8.7789  13.3356  13.6012  14.2159  14.9213  16.2878  31.7437  31.8509
    35.7157  36.0162

     occupation numbers 
     1.0000   0.9518   0.7117   0.0229   0.0000   0.0000   0.0000   0.0000
     0.0000   0.0000

          k =-0.0625-0.1250 0.5000 (   408 PWs)   bands (ev):

     9.7109  12.9262  13.5163  14.4164  15.4421  16.5148  28.7606  30.6355
    34.8296  37.0072

     occupation numbers 
     1.0000   0.9996   0.8189   0.0023   0.0000   0.0000   0.0000   0.0000
     0.0000   0.0000

          k =-0.0625-0.1875 0.5625 (   410 PWs)   bands (ev):

    10.5337  12.6103  13.3712  14.6767  15.8945  17.0502  25.9947  29.6559
    34.0542  38.4156

     occupation numbers 
     1.0000   1.0000   0.9351   0.0000   0.0000   0.0000   0.0000   0.0000
     0.0000   0.0000

          k =-0.0625-0.2500 0.6250 (   413 PWs)   bands (ev):

    11.0767  12.4428  13.2465  14.7785  16.1894  18.0050  23.7101  28.9693
    33.5783  40.0063

     occupation numbers 
     1.0000   1.0000   0.9790   0.0000   0.0000   0.0000   0.0000   0.0000
     0.0000   0.0000

          k =-0.0625 0.6875-0.3125 (   414 PWs)   bands (ev):

    11.2607  12.4188  13.1552  14.8180  16.3077  18.6791  22.6090  28.7169
    33.4219  41.1896

     occupation numbers 
     1.0000   1.0000   0.9921   0.0000   0.0000   0.0000   0.0000   0.0000
     0.0000   0.0000

          k =-0.1250-0.1250 0.5625 (   410 PWs)   bands (ev):

    10.5127  12.5804  13.5093  14.5720  15.7356  17.1090  27.7177  27.7450
    36.0426  36.1951

     occupation numbers 
     1.0000   1.0000   0.8265   0.0003   0.0000   0.0000   0.0000   0.0000
     0.0000   0.0000

          k =-0.1250-0.1875 0.6250 (   413 PWs)   bands (ev):

    11.1615  12.3019  13.3271  14.8274  15.9256  18.1766  25.0994  26.9361
    35.4933  37.6879

     occupation numbers 
     1.0000   1.0000   0.9552   0.0000   0.0000   0.0000   0.0000   0.0000
     0.0000   0.0000

          k =-0.1250 0.7500-0.3125 (   411 PWs)   bands (ev):

    11.5519  12.2095  13.1676  14.9658  16.0488  19.4957  23.0665  26.4890
    35.1800  39.4152

     occupation numbers 
     1.0000   1.0000   0.9909   0.0000   0.0000   0.0000   0.0000   0.0000
     0.0000   0.0000

          k =-0.1875 0.8125-0.3125 (   410 PWs)   bands (ev):

    11.7112  12.0913  13.1118  15.1571  15.8569  19.7807  24.1266  24.8197
    37.2213  37.2499

     occupation numbers 
     1.0000   1.0000   0.9952   0.0000   0.0000   0.0000   0.0000   0.0000
     0.0000   0.0000

          k =-0.1875 0.7500-0.2500 (   411 PWs)   bands (ev):

    11.9395  12.0622  12.8993  15.3469  15.7881  21.0881  22.6687  24.4267
    37.0853  38.8991

     occupation numbers 
     1.0000   1.0000   0.9997   0.0000   0.0000   0.0000   0.0000   0.0000
     0.0000   0.0000

          k =-0.3125 0.3125 0.3125 (   408 PWs)   bands (ev):

    10.0768  12.4282  12.4282  15.7284  15.7284  17.1069  28.6930  28.6930
    29.2155  44.5840

     occupation numbers 
     1.0000   1.0000   1.0000   0.0000   0.0000   0.0000   0.0000   0.0000
     0.0000   0.0000

          k = 0.6250-0.6250 0.3125 (   404 PWs)   bands (ev):

    10.9328  12.2891  12.3321  15.7750  15.9102  18.1072  26.1691  27.9505
    28.1895  45.7948

     occupation numbers 
     1.0000   1.0000   1.0000   0.0000   0.0000   0.0000   0.0000   0.0000
     0.0000   0.0000

          k = 0.5625-0.5625 0.3125 (   410 PWs)   bands (ev):

    11.3978  12.2063  12.3973  15.7903  15.8942  19.2266  23.8941  27.4962
    27.6214  46.4467

     occupation numbers 
     1.0000   1.0000   1.0000   0.0000   0.0000   0.0000   0.0000   0.0000
     0.0000   0.0000

          k = 0.5625-0.6250 0.3750 (   408 PWs)   bands (ev):

    11.5616  12.1602  12.2241  15.8598  15.9166  19.3198  25.3485  25.6769
    27.4685  47.3840

     occupation numbers 
     1.0000   1.0000   1.0000   0.0000   0.0000   0.0000   0.0000   0.0000
     0.0000   0.0000

          k = 0.5000-0.5000 0.3125 (   412 PWs)   bands (ev):

    11.4929  12.1928  12.5072  15.7868  15.8900  19.9732  22.7279  27.3481
    27.4260  46.6290

     occupation numbers 
     1.0000   1.0000   1.0000   0.0000   0.0000   0.0000   0.0000   0.0000
     0.0000   0.0000

          k = 0.5000-0.5625 0.3750 (   408 PWs)   bands (ev):

    11.7971  12.1500  12.2845  15.8872  15.9396  20.7389  23.3638  25.2253
    27.1680  48.2770

     occupation numbers 
     1.0000   1.0000   1.0000   0.0000   0.0000   0.0000   0.0000   0.0000
     0.0000   0.0000

          k = 0.4375-0.5625 0.4375 (   405 PWs)   bands (ev):

    11.9651  12.1748  12.1748  15.9724  15.9724  22.4097  22.4097  24.0473
    27.0402  49.7707

     occupation numbers 
     1.0000   1.0000   1.0000   0.0000   0.0000   0.0000   0.0000   0.0000
     0.0000   0.0000

          k = 0.0000 0.0000 0.4375 (   402 PWs)   bands (ev):

     8.6688  13.7055  13.8309  13.8309  14.7224  16.3285  33.3946  33.3946
    33.9360  34.4590

     occupation numbers 
     1.0000   0.5495   0.3458   0.3458   0.0000   0.0000   0.0000   0.0000
     0.0000   0.0000

          k = 0.0000-0.0625 0.5000 (   406 PWs)   bands (ev):

     9.5307  13.1610  13.8309  14.0962  15.1009  16.5028  30.4887  31.8243
    33.5382  34.9929

     occupation numbers 
     1.0000   0.9915   0.3457   0.0668   0.0000   0.0000   0.0000   0.0000
     0.0000   0.0000

          k = 0.0000-0.1250 0.5625 (   413 PWs)   bands (ev):

    10.3557  12.7160  13.6919  14.3780  15.5775  16.8739  27.5542  30.4633
    33.0261  36.3071

     occupation numbers 
     1.0000   1.0000   0.5719   0.0038   0.0000   0.0000   0.0000   0.0000
     0.0000   0.0000

          k = 0.0000-0.1875 0.6250 (   415 PWs)   bands (ev):

    10.9847  12.3809  13.5843  14.5601  16.0933  17.7156  24.9305  29.4332
    32.6610  37.8750

     occupation numbers 
     1.0000   1.0000   0.7351   0.0003   0.0000   0.0000   0.0000   0.0000
     0.0000   0.0000

          k = 0.0000-0.2500 0.6875 (   415 PWs)   bands (ev):

    11.3670  12.1996  13.5308  14.5914  16.3642  18.8376  22.9865  28.8703
    32.4797  39.4128

     occupation numbers 
     1.0000   1.0000   0.8026   0.0002   0.0000   0.0000   0.0000   0.0000
     0.0000   0.0000

          k =-0.0625-0.0625 0.5625 (   415 PWs)   bands (ev):

    10.2860  12.7282  13.8788  14.2585  15.4029  16.8277  29.2293  29.2500
    34.1960  34.3317

     occupation numbers 
     1.0000   1.0000   0.2756   0.0148   0.0000   0.0000   0.0000   0.0000
     0.0000   0.0000

          k =-0.0625-0.1250 0.6250 (   415 PWs)   bands (ev):

    10.9246  12.3641  13.8118  14.5534  15.8273  17.6245  26.4763  28.1850
    33.7493  35.6971

     occupation numbers 
     1.0000   1.0000   0.3754   0.0003   0.0000   0.0000   0.0000   0.0000
     0.0000   0.0000

          k =-0.0625-0.1875 0.6875 (   412 PWs)   bands (ev):

    11.3919  12.1043  13.7280  14.7252  16.1742  18.9298  24.0426  27.4528
    33.4484  37.3558

     occupation numbers 
     1.0000   1.0000   0.5124   0.0000   0.0000   0.0000   0.0000   0.0000
     0.0000   0.0000

          k =-0.0625 0.7500-0.2500 (   408 PWs)   bands (ev):

    11.5953  12.0004  13.6934  14.7870  16.3451  19.9301  22.6845  27.1881
    33.3584  38.4986

     occupation numbers 
     1.0000   1.0000   0.5695   0.0000   0.0000   0.0000   0.0000   0.0000
     0.0000   0.0000

          k =-0.1250-0.1250 0.6875 (   410 PWs)   bands (ev):

    11.3950  12.0866  13.7246  14.9462  16.0007  18.9534  25.5196  25.7476
    35.0886  35.4524

     occupation numbers 
     1.0000   1.0000   0.5181   0.0000   0.0000   0.0000   0.0000   0.0000
     0.0000   0.0000

          k =-0.1250 0.8125-0.2500 (   409 PWs)   bands (ev):

    11.7079  11.8999  13.6052  15.2229  16.0227  20.5719  23.3665  25.1880
    35.0128  36.9876

     occupation numbers 
     1.0000   1.0000   0.7059   0.0000   0.0000   0.0000   0.0000   0.0000
     0.0000   0.0000

          k =-0.1875 0.8125-0.1875 (   415 PWs)   bands (ev):

    11.7958  11.7958  13.4868  15.6763  15.6763  22.3345  22.3345  23.9176
    36.4827  36.4827

     occupation numbers 
     1.0000   1.0000   0.8494   0.0000   0.0000   0.0000   0.0000   0.0000
     0.0000   0.0000

          k = 0.5625-0.5625 0.4375 (   408 PWs)   bands (ev):

    12.0223  12.0934  12.0934  15.9384  15.9384  20.8686  24.8693  24.8693
    25.3911  49.7254

     occupation numbers 
     1.0000   1.0000   1.0000   0.0000   0.0000   0.0000   0.0000   0.0000
     0.0000   0.0000

          k = 0.5000-0.5000 0.4375 (   420 PWs)   bands (ev):

    11.9907  12.0378  12.1566  15.8595  15.8765  22.2127  23.2053  24.6843
    25.1507  50.8321

     occupation numbers 
     1.0000   1.0000   1.0000   0.0000   0.0000   0.0000   0.0000   0.0000
     0.0000   0.0000

          k = 0.0000 0.0000 0.5625 (   410 PWs)   bands (ev):

    10.2183  12.8262  14.1326  14.1326  15.2234  16.8150  30.1973  30.1973
    33.1114  33.2240

     occupation numbers 
     1.0000   0.9999   0.0494   0.0494   0.0000   0.0000   0.0000   0.0000
     0.0000   0.0000

          k = 0.0000-0.0625 0.6250 (   414 PWs)   bands (ev):

    10.7908  12.4250  14.2523  14.4233  15.5704  17.3733  27.9246  28.7986
    32.8637  33.8357

     occupation numbers 
     1.0000   1.0000   0.0158   0.0021   0.0000   0.0000   0.0000   0.0000
     0.0000   0.0000

          k = 0.0000-0.1250 0.6875 (   413 PWs)   bands (ev):

    11.2322  12.0590  14.2633  14.6304  16.0624  18.5163  25.3478  27.7403
    32.6660  35.2905

     occupation numbers 
     1.0000   1.0000   0.0141   0.0001   0.0000   0.0000   0.0000   0.0000
     0.0000   0.0000

          k = 0.0000-0.1875 0.7500 (   410 PWs)   bands (ev):

    11.5401  11.8357  14.2297  14.7280  16.3460  19.9945  23.2063  27.1491
    32.5557  36.8611

     occupation numbers 
     1.0000   1.0000   0.0199   0.0000   0.0000   0.0000   0.0000   0.0000
     0.0000   0.0000

          k =-0.0625-0.0625 0.6875 (   415 PWs)   bands (ev):

    11.1521  12.0686  14.3738  14.8011  15.8308  18.3700  26.7684  26.7983
    33.3791  33.6699

     occupation numbers 
     1.0000   1.0000   0.0040   0.0000   0.0000   0.0000   0.0000   0.0000
     0.0000   0.0000

          k =-0.0625-0.1250 0.7500 (   411 PWs)   bands (ev):

    11.4422  11.7980  14.3467  15.0981  16.1357  19.8768  24.4430  25.9911
    33.3145  35.0236

     occupation numbers 
     1.0000   1.0000   0.0055   0.0000   0.0000   0.0000   0.0000   0.0000
     0.0000   0.0000

          k =-0.0625 0.8125-0.1875 (   408 PWs)   bands (ev):

    11.6092  11.6406  14.3409  15.1926  16.3000  21.1770  22.8499  25.7021
    33.2701  36.1316

     occupation numbers 
     1.0000   1.0000   0.0059   0.0000   0.0000   0.0000   0.0000   0.0000
     0.0000   0.0000

          k =-0.1250 0.8750-0.1875 (   412 PWs)   bands (ev):

    11.5518  11.6248  14.2884  15.6152  16.0159  21.5894  23.5959  24.2140
    34.4501  35.0434

     occupation numbers 
     1.0000   1.0000   0.0108   0.0000   0.0000   0.0000   0.0000   0.0000
     0.0000   0.0000

          k = 0.0000 0.0000 0.6875 (   414 PWs)   bands (ev):

    11.0834  12.0512  14.7329  14.7329  15.7256  18.1856  27.3538  27.3538
    32.6296  32.8522

     occupation numbers 
     1.0000   1.0000   0.0000   0.0000   0.0000   0.0000   0.0000   0.0000
     0.0000   0.0000

          k = 0.0000-0.0625 0.7500 (   410 PWs)   bands (ev):

    11.2986  11.7636  14.9755  15.0547  16.0064  19.4653  25.5633  26.2430
    32.6184  33.4331

     occupation numbers 
     1.0000   1.0000   0.0000   0.0000   0.0000   0.0000   0.0000   0.0000
     0.0000   0.0000

          k = 0.0000-0.1250 0.8125 (   406 PWs)   bands (ev):

    11.4284  11.5708  15.0440  15.2407  16.3203  21.0763  23.5238  25.6182
    32.5938  34.7155

     occupation numbers 
     1.0000   1.0000   0.0000   0.0000   0.0000   0.0000   0.0000   0.0000
     0.0000   0.0000

          k =-0.0625-0.0625 0.8125 (   410 PWs)   bands (ev):

    11.3478  11.5239  15.0956  15.5433  16.1697  20.9134  24.6273  24.7727
    32.9687  33.5584

     occupation numbers 
     1.0000   1.0000   0.0000   0.0000   0.0000   0.0000   0.0000   0.0000
     0.0000   0.0000

          k =-0.0625 0.8750-0.1250 (   407 PWs)   bands (ev):

    11.4065  11.4203  15.0927  15.7874  16.2712  22.3644  23.1194  24.4005
    33.1195  34.1936

     occupation numbers 
     1.0000   1.0000   0.0000   0.0000   0.0000   0.0000   0.0000   0.0000
     0.0000   0.0000

          k = 0.0000 0.0000 0.8125 (   406 PWs)   bands (ev):

    11.2602  11.5404  15.5717  15.5717  16.0498  20.6385  25.0668  25.0668
    32.4298  32.9154

     occupation numbers 
     1.0000   1.0000   0.0000   0.0000   0.0000   0.0000   0.0000   0.0000
     0.0000   0.0000

          k = 0.0000-0.0625 0.8750 (   402 PWs)   bands (ev):

    11.2830  11.3527  15.8241  15.8675  16.2733  22.1047  23.7783  24.3913
    32.5002  33.2414

     occupation numbers 
     1.0000   1.0000   0.0000   0.0000   0.0000   0.0000   0.0000   0.0000
     0.0000   0.0000

          k =-0.0625 0.9375-0.0625 (   403 PWs)   bands (ev):

    11.2662  11.2662  15.8447  16.2374  16.2374  23.2890  23.2890  23.6029
    32.8299  32.8299

     occupation numbers 
     1.0000   1.0000   0.0000   0.0000   0.0000   0.0000   0.0000   0.0000
     0.0000   0.0000

          k = 0.0000 0.0000 0.9375 (   406 PWs)   bands (ev):

    11.1939  11.1951  16.2016  16.2520  16.2520  23.0256  23.6635  23.6635
    32.2902  32.5723

     occupation numbers 
     1.0000   1.0000   0.0000   0.0000   0.0000   0.0000   0.0000   0.0000
     0.0000   0.0000

     the Fermi energy is    13.7355 ev

     Writing output data file Fe_nscf_e45_k16_nb10.save

     init_run     :      0.18s CPU      0.18s WALL (       1 calls)
     electrons    :     14.84s CPU     18.78s WALL (       1 calls)

     Called by init_run:
     wfcinit      :      0.00s CPU      0.00s WALL (       1 calls)
     potinit      :      0.02s CPU      0.02s WALL (       1 calls)

     Called by electrons:
     c_bands      :     14.83s CPU     18.77s WALL (       1 calls)
     v_of_rho     :      0.02s CPU      0.02s WALL (       1 calls)
     v_h          :      0.00s CPU      0.00s WALL (       1 calls)
     v_xc         :      0.02s CPU      0.02s WALL (       1 calls)

     Called by c_bands:
     init_us_2    :      0.06s CPU      0.06s WALL (     280 calls)
     cegterg      :     13.55s CPU     17.27s WALL (     284 calls)

     Called by sum_band:

     Called by *egterg:
     h_psi        :      7.33s CPU      6.39s WALL (    4376 calls)
     g_psi        :      0.08s CPU      0.07s WALL (    3812 calls)
     cdiaghg      :      5.86s CPU     10.85s WALL (    4092 calls)
     cegterg:over :      0.51s CPU      0.42s WALL (    3812 calls)
     cegterg:upda :      0.48s CPU      0.44s WALL (    3812 calls)
     cegterg:last :      0.17s CPU      0.21s WALL (     852 calls)

     Called by h_psi:
     h_psi:vloc   :      6.88s CPU      6.02s WALL (    4376 calls)
     h_psi:vnl    :      0.35s CPU      0.30s WALL (    4376 calls)
     add_vuspsi   :      0.18s CPU      0.14s WALL (    4376 calls)

     General routines
     calbec       :      0.14s CPU      0.13s WALL (    4376 calls)
     fft          :      0.00s CPU      0.00s WALL (      19 calls)
     fftw         :      5.96s CPU      5.17s WALL (   53424 calls)

     Parallel routines
     fft_scatter  :      0.84s CPU      0.74s WALL (   53443 calls)

     PWSCF        :    16.12s CPU        21.07s WALL


   This run was terminated on:  13:40:36  28Jul2018            

=------------------------------------------------------------------------------=
   JOB DONE.
=------------------------------------------------------------------------------=
