
     Program PWSCF v.6.5 starts on 16Nov2020 at 14: 2: 4 

     This program is part of the open-source Quantum ESPRESSO suite
     for quantum simulation of materials; please cite
         "P. Giannozzi et al., J. Phys.:Condens. Matter 21 395502 (2009);
         "P. Giannozzi et al., J. Phys.:Condens. Matter 29 465901 (2017);
          URL http://www.quantum-espresso.org", 
     in publications or presentations arising from this work. More details at
     http://www.quantum-espresso.org/quote

     Parallel version (MPI), running on     1 processors

     MPI processes distributed on     1 nodes
     Waiting for input...
     Reading input from standard input
     Message from routine read_cards :
     DEPRECATED: no units specified in ATOMIC_POSITIONS card
     Message from routine read_cards :
     ATOMIC_POSITIONS: units set to alat

     Current dimensions of program PWSCF are:
     Max number of different atomic species (ntypx) = 10
     Max number of k-points (npk) =  40000
     Max angular momentum in pseudopotentials (lmaxx) =  3
     Message from routine read_upf::
     Pseudo file Fe.rel-pbe-n-nc.UPF has been fixed on the fly.
To avoid this message in the future, permanently fix 
 your pseudo files following these instructions: 
https://gitlab.com/QEF/q-e/blob/master/upftools/how_to_fix_upf.md

     Subspace diagonalization in iterative solution of the eigenvalue problem:
     a serial algorithm will be used


     G-vector sticks info
     --------------------
     sticks:   dense  smooth     PW     G-vecs:    dense   smooth      PW
     Sum         291     291     99                 3151     3151     627



     bravais-lattice index     =            3
     lattice parameter (alat)  =       5.4200  a.u.
     unit-cell volume          =      79.6100 (a.u.)^3
     number of atoms/cell      =            1
     number of atomic types    =            1
     number of electrons       =         8.00
     number of Kohn-Sham states=            8
     kinetic-energy cutoff     =      45.0000  Ry
     charge density cutoff     =     180.0000  Ry
     convergence threshold     =      1.0E-08
     mixing beta               =       0.7000
     number of iterations used =            8  plain     mixing
     Exchange-correlation= PBE
                           (   1   4   3   4   0   0   0)

     celldm(1)=   5.420000  celldm(2)=   0.000000  celldm(3)=   0.000000
     celldm(4)=   0.000000  celldm(5)=   0.000000  celldm(6)=   0.000000

     crystal axes: (cart. coord. in units of alat)
               a(1) = (   0.500000   0.500000   0.500000 )  
               a(2) = (  -0.500000   0.500000   0.500000 )  
               a(3) = (  -0.500000  -0.500000   0.500000 )  

     reciprocal axes: (cart. coord. in units 2 pi/alat)
               b(1) = (  1.000000  0.000000  1.000000 )  
               b(2) = ( -1.000000  1.000000  0.000000 )  
               b(3) = (  0.000000 -1.000000  1.000000 )  


     PseudoPot. # 1 for Fe read from file:
     ./Fe.rel-pbe-n-nc.UPF
     MD5 check sum: 94258d60e67ccf79570366bad73e55f4
     Pseudo is Norm-conserving + core correction, Zval =  8.0
     Generated using "atomic" code by A. Dal Corso v.5.0.2 svn rev. 10042M
     Using radial grid of 1191 points,  2 beta functions with: 
                l(1) =   1
                l(2) =   2

     atomic species   valence    mass     pseudopotential
        Fe             8.00    55.84500     Fe( 1.00)

     Starting magnetic structure 
     atomic species   magnetization
        Fe           1.000

     48 Sym. Ops., with inversion, found



   Cartesian axes

     site n.     atom                  positions (alat units)
         1           Fe  tau(   1) = (   0.0000000   0.0000000   0.0000000  )

     number of k points=    26  Gaussian smearing, width (Ry)=  0.0250
                       cart. coord. in units 2pi/alat
        k(    1) = (   0.0000000   0.0000000   0.1250000), wk =   0.0117188
        k(    2) = (   0.0000000  -0.1250000   0.2500000), wk =   0.0468750
        k(    3) = (   0.0000000  -0.2500000   0.3750000), wk =   0.0468750
        k(    4) = (   0.0000000  -0.3750000   0.5000000), wk =   0.0468750
        k(    5) = (  -0.1250000   0.1250000   0.1250000), wk =   0.0156250
        k(    6) = (  -0.1250000  -0.1250000   0.3750000), wk =   0.0468750
        k(    7) = (  -0.1250000  -0.2500000   0.5000000), wk =   0.0937500
        k(    8) = (  -0.1250000   0.6250000  -0.3750000), wk =   0.0468750
        k(    9) = (  -0.2500000   0.2500000   0.1250000), wk =   0.0468750
        k(   10) = (  -0.2500000   0.7500000  -0.3750000), wk =   0.0468750
        k(   11) = (  -0.3750000   0.3750000   0.1250000), wk =   0.0468750
        k(   12) = (  -0.3750000   0.2500000   0.2500000), wk =   0.0468750
        k(   13) = (   0.5000000  -0.5000000   0.1250000), wk =   0.0234375
        k(   14) = (   0.5000000  -0.6250000   0.2500000), wk =   0.0937500
        k(   15) = (   0.3750000  -0.6250000   0.3750000), wk =   0.0156250
        k(   16) = (   0.0000000   0.0000000   0.3750000), wk =   0.0117188
        k(   17) = (   0.0000000  -0.1250000   0.5000000), wk =   0.0468750
        k(   18) = (   0.0000000  -0.2500000   0.6250000), wk =   0.0468750
        k(   19) = (  -0.1250000  -0.1250000   0.6250000), wk =   0.0468750
        k(   20) = (  -0.1250000   0.7500000  -0.2500000), wk =   0.0468750
        k(   21) = (   0.6250000  -0.6250000   0.3750000), wk =   0.0156250
        k(   22) = (   0.5000000  -0.5000000   0.3750000), wk =   0.0234375
        k(   23) = (   0.0000000   0.0000000   0.6250000), wk =   0.0117188
        k(   24) = (   0.0000000  -0.1250000   0.7500000), wk =   0.0468750
        k(   25) = (  -0.1250000   0.8750000  -0.1250000), wk =   0.0156250
        k(   26) = (   0.0000000   0.0000000   0.8750000), wk =   0.0117188

     Dense  grid:     3151 G-vectors     FFT dimensions: (  20,  20,  20)

     Estimated max dynamical RAM per process >       6.38 MB
     Generating pointlists ...
     new r_m :   0.3572 (alat units)  1.9362 (a.u.) for type    1

     Check: negative core charge=   -0.000019

     Initial potential from superposition of free atoms

     starting charge    7.99956, renormalised to    8.00000
     Starting wfcs are    9 randomized atomic wfcs

     total cpu time spent up to now is        0.5 secs

     Self-consistent Calculation

     iteration #  1     ecut=    45.00 Ry     beta= 0.70
     Davidson diagonalization with overlap
     ethr =  1.00E-02,  avg # of iterations =  3.3

     total cpu time spent up to now is        1.0 secs

     total energy              =     -54.70307878 Ry
     Harris-Foulkes estimate   =     -54.51732705 Ry
     estimated scf accuracy    <       0.16368582 Ry

     total magnetization       =     3.58 Bohr mag/cell
     absolute magnetization    =     3.58 Bohr mag/cell

     iteration #  2     ecut=    45.00 Ry     beta= 0.70
     Davidson diagonalization with overlap
     ethr =  2.05E-03,  avg # of iterations =  1.2

     total cpu time spent up to now is        1.4 secs

     total energy              =     -54.77881504 Ry
     Harris-Foulkes estimate   =     -54.74553564 Ry
     estimated scf accuracy    <       0.04755301 Ry

     total magnetization       =     3.02 Bohr mag/cell
     absolute magnetization    =     3.03 Bohr mag/cell

     iteration #  3     ecut=    45.00 Ry     beta= 0.70
     Davidson diagonalization with overlap
     ethr =  5.94E-04,  avg # of iterations =  1.2

     total cpu time spent up to now is        1.7 secs

     total energy              =     -54.79648696 Ry
     Harris-Foulkes estimate   =     -54.79162944 Ry
     estimated scf accuracy    <       0.01422315 Ry

     total magnetization       =     2.79 Bohr mag/cell
     absolute magnetization    =     2.87 Bohr mag/cell

     iteration #  4     ecut=    45.00 Ry     beta= 0.70
     Davidson diagonalization with overlap
     ethr =  1.78E-04,  avg # of iterations =  1.3

     total cpu time spent up to now is        2.0 secs

     total energy              =     -54.80103675 Ry
     Harris-Foulkes estimate   =     -54.80293263 Ry
     estimated scf accuracy    <       0.00049764 Ry

     total magnetization       =     2.46 Bohr mag/cell
     absolute magnetization    =     2.63 Bohr mag/cell

     iteration #  5     ecut=    45.00 Ry     beta= 0.70
     Davidson diagonalization with overlap
     ethr =  6.22E-06,  avg # of iterations =  3.4

     total cpu time spent up to now is        2.6 secs

     total energy              =     -54.80380973 Ry
     Harris-Foulkes estimate   =     -54.80345554 Ry
     estimated scf accuracy    <       0.00018227 Ry

     total magnetization       =     2.24 Bohr mag/cell
     absolute magnetization    =     2.43 Bohr mag/cell

     iteration #  6     ecut=    45.00 Ry     beta= 0.70
     Davidson diagonalization with overlap
     ethr =  2.28E-06,  avg # of iterations =  1.7

     total cpu time spent up to now is        2.9 secs

     total energy              =     -54.80397231 Ry
     Harris-Foulkes estimate   =     -54.80393622 Ry
     estimated scf accuracy    <       0.00001218 Ry

     total magnetization       =     2.29 Bohr mag/cell
     absolute magnetization    =     2.46 Bohr mag/cell

     iteration #  7     ecut=    45.00 Ry     beta= 0.70
     Davidson diagonalization with overlap
     ethr =  1.52E-07,  avg # of iterations =  2.7

     total cpu time spent up to now is        3.4 secs

     total energy              =     -54.80398353 Ry
     Harris-Foulkes estimate   =     -54.80398383 Ry
     estimated scf accuracy    <       0.00000113 Ry

     total magnetization       =     2.30 Bohr mag/cell
     absolute magnetization    =     2.46 Bohr mag/cell

     iteration #  8     ecut=    45.00 Ry     beta= 0.70
     Davidson diagonalization with overlap
     ethr =  1.41E-08,  avg # of iterations =  2.5

     total cpu time spent up to now is        3.8 secs

     total energy              =     -54.80398560 Ry
     Harris-Foulkes estimate   =     -54.80398556 Ry
     estimated scf accuracy    <       0.00000021 Ry

     total magnetization       =     2.30 Bohr mag/cell
     absolute magnetization    =     2.46 Bohr mag/cell

     iteration #  9     ecut=    45.00 Ry     beta= 0.70
     Davidson diagonalization with overlap
     ethr =  2.67E-09,  avg # of iterations =  2.1

     Magnetic moment per site:
     atom:    1    charge:    6.4528    magn:    2.3687    constr:    0.0000

     total cpu time spent up to now is        4.2 secs

     End of self-consistent calculation

 ------ SPIN UP ------------


          k = 0.0000 0.0000 0.1250 (   401 PWs)   bands (ev):

     5.4206  11.3955  11.3955  11.5443  12.3789  12.5932  38.2517  39.5671

          k = 0.0000-0.1250 0.2500 (   402 PWs)   bands (ev):

     6.5998  11.1901  11.3101  12.0842  12.1900  12.6687  33.4603  36.5177

          k = 0.0000-0.2500 0.3750 (   407 PWs)   bands (ev):

     8.3253  10.8077  11.2745  12.3927  12.8585  12.9966  27.0844  33.8328

          k = 0.0000-0.3750 0.5000 (   406 PWs)   bands (ev):

     8.9473  10.5913  12.0075  12.5706  13.7972  14.0896  22.0622  32.3271

          k =-0.1250 0.1250 0.1250 (   393 PWs)   bands (ev):

     6.0280  11.2709  11.2709  12.0486  12.5122  12.5122  36.2550  36.2550

          k =-0.1250-0.1250 0.3750 (   399 PWs)   bands (ev):

     8.0786  10.9101  11.1844  12.1121  12.7959  13.1253  30.6283  30.8154

          k =-0.1250-0.2500 0.5000 (   405 PWs)   bands (ev):

     9.2762  10.6346  11.1412  12.4028  13.1240  14.7440  24.7270  28.6794

          k =-0.1250 0.6250-0.3750 (   404 PWs)   bands (ev):

     9.4370  10.6839  11.2350  12.4921  13.4554  16.7346  21.2341  27.8779

          k =-0.2500 0.2500 0.1250 (   400 PWs)   bands (ev):

     7.6358  10.8735  10.9970  12.4377  12.6269  12.9906  30.2538  33.5315

          k =-0.2500 0.7500-0.3750 (   406 PWs)   bands (ev):

    10.0844  10.3080  10.8599  12.6322  13.0691  18.0849  22.7832  23.7886

          k =-0.3750 0.3750 0.1250 (   406 PWs)   bands (ev):

     8.9475  10.5367  11.6092  12.5650  12.7182  14.2896  24.3436  31.5514

          k =-0.3750 0.2500 0.2500 (   402 PWs)   bands (ev):

     9.1797  10.5678  10.7225  12.5489  12.7930  14.4997  27.7513  27.9058

          k = 0.5000-0.5000 0.1250 (   406 PWs)   bands (ev):

     9.0818  10.4483  12.5628  12.6315  12.7492  15.6223  21.1266  30.8411

          k = 0.5000-0.6250 0.2500 (   410 PWs)   bands (ev):

     9.6705  10.3849  11.1973  12.6653  12.8159  16.9750  22.5564  26.4241

          k = 0.3750-0.6250 0.3750 (   408 PWs)   bands (ev):

    10.0668  10.6366  10.6366  12.7963  12.7963  20.6972  20.6972  22.9326

          k = 0.0000 0.0000 0.3750 (   398 PWs)   bands (ev):

     7.6518  11.3935  11.5437  11.5437  12.1246  13.2135  34.3568  34.4171

          k = 0.0000-0.1250 0.5000 (   408 PWs)   bands (ev):

     9.0299  10.7044  11.3838  12.0096  12.8898  13.8551  27.9553  31.3300

          k = 0.0000-0.2500 0.6250 (   416 PWs)   bands (ev):

     9.4365  10.5572  11.1464  12.1957  13.7151  16.2624  22.5225  29.3843

          k =-0.1250-0.1250 0.6250 (   414 PWs)   bands (ev):

     9.6734  10.1167  11.4302  12.3290  13.3090  16.1709  25.7506  25.9319

          k =-0.1250 0.7500-0.2500 (   410 PWs)   bands (ev):

     9.7656  10.1208  11.2453  12.6320  13.5317  19.2923  21.5872  25.0057

          k = 0.6250-0.6250 0.3750 (   408 PWs)   bands (ev):

    10.3384  10.3690  10.3690  12.7297  12.7297  16.9809  25.9240  25.9240

          k = 0.5000-0.5000 0.3750 (   408 PWs)   bands (ev):

    10.1767  10.3430  10.9269  12.7347  12.7616  19.9931  21.8047  25.3085

          k = 0.0000 0.0000 0.6250 (   414 PWs)   bands (ev):

     9.4655  10.0423  12.1805  12.1805  13.0196  15.5077  28.0914  28.0914

          k = 0.0000-0.1250 0.7500 (   410 PWs)   bands (ev):

     9.5158   9.6175  12.3674  12.6096  13.6811  18.6839  23.5786  26.0562

          k =-0.1250 0.8750-0.1250 (   415 PWs)   bands (ev):

     9.3704   9.3704  12.4376  13.4454  13.4454  22.1591  22.1591  23.1421

          k = 0.0000 0.0000 0.8750 (   398 PWs)   bands (ev):

     9.1855   9.2084  13.5594  13.5594  13.6464  21.4211  23.8641  23.8641

 ------ SPIN DOWN ----------


          k = 0.0000 0.0000 0.1250 (   401 PWs)   bands (ev):

     5.5373  13.6543  13.6543  13.8265  15.4343  15.7081  37.9695  39.2579

          k = 0.0000-0.1250 0.2500 (   402 PWs)   bands (ev):

     6.7403  13.3909  13.5241  14.4207  15.1043  15.7954  33.8715  36.6058

          k = 0.0000-0.2500 0.3750 (   407 PWs)   bands (ev):

     8.7735  12.9281  13.1395  15.1569  15.4475  15.9302  27.9236  33.9276

          k = 0.0000-0.3750 0.5000 (   406 PWs)   bands (ev):

    10.3239  12.6607  13.4150  15.3804  16.2127  16.3684  23.3891  32.3851

          k =-0.1250 0.1250 0.1250 (   393 PWs)   bands (ev):

     6.1506  13.4958  13.4958  14.3642  15.5750  15.5750  36.3391  36.3391

          k =-0.1250-0.1250 0.3750 (   399 PWs)   bands (ev):

     8.3545  13.1172  13.2782  14.8499  15.2355  16.1300  31.1970  31.4567

          k =-0.1250-0.2500 0.5000 (   405 PWs)   bands (ev):

    10.2722  12.6280  13.0203  15.0940  15.9300  16.8947  25.6956  29.3210

          k =-0.1250 0.6250-0.3750 (   404 PWs)   bands (ev):

    11.0511  12.7212  12.8448  15.2493  16.1171  18.1932  22.6428  28.5043

          k =-0.2500 0.2500 0.1250 (   400 PWs)   bands (ev):

     7.8436  13.0041  13.0871  15.3344  15.4078  15.7329  30.8689  33.7570

          k =-0.2500 0.7500-0.3750 (   406 PWs)   bands (ev):

    11.6583  12.2058  12.7352  15.3301  15.7942  19.5536  23.8104  24.7153

          k =-0.3750 0.3750 0.1250 (   406 PWs)   bands (ev):

     9.8663  12.5869  12.9657  15.4760  15.8733  16.5090  25.3659  31.7569

          k =-0.3750 0.2500 0.2500 (   402 PWs)   bands (ev):

     9.7054  12.5596  12.6523  15.5127  15.9056  16.6872  28.4233  28.6420

          k = 0.5000-0.5000 0.1250 (   406 PWs)   bands (ev):

    10.6006  12.4671  13.4753  15.5543  15.9276  17.3098  22.5987  31.0230

          k = 0.5000-0.6250 0.2500 (   410 PWs)   bands (ev):

    11.1206  12.2939  12.6100  15.6338  15.9021  18.5708  23.6654  27.1199

          k = 0.3750-0.6250 0.3750 (   408 PWs)   bands (ev):

    11.8544  12.2412  12.2412  15.8143  15.8143  21.8054  21.8054  23.9500

          k = 0.0000 0.0000 0.3750 (   398 PWs)   bands (ev):

     7.8565  13.7349  13.7349  14.1402  14.4767  16.3027  34.5123  35.0379

          k = 0.0000-0.1250 0.5000 (   408 PWs)   bands (ev):

     9.6611  13.0318  13.5426  14.3730  15.3256  16.4913  28.7339  31.9930

          k = 0.0000-0.2500 0.6250 (   416 PWs)   bands (ev):

    11.0198  12.4615  13.2725  14.7154  16.2738  17.8135  23.6759  29.9875

          k =-0.1250-0.1250 0.6250 (   414 PWs)   bands (ev):

    11.0348  12.3287  13.5734  14.7048  15.8398  17.8837  26.5940  26.6932

          k =-0.1250 0.7500-0.2500 (   410 PWs)   bands (ev):

    11.7235  12.0326  13.3181  15.0681  16.0647  20.4185  22.7289  25.7629

          k = 0.6250-0.6250 0.3750 (   408 PWs)   bands (ev):

    11.3027  12.2100  12.2100  15.8567  15.8567  18.6805  26.6312  26.6312

          k = 0.5000-0.5000 0.3750 (   408 PWs)   bands (ev):

    11.7867  12.1267  12.3667  15.8877  15.9199  21.1345  22.9160  26.0256

          k = 0.0000 0.0000 0.6250 (   414 PWs)   bands (ev):

    10.7561  12.4182  14.3954  14.3954  15.4824  17.3187  28.7192  28.7192

          k = 0.0000-0.1250 0.7500 (   410 PWs)   bands (ev):

    11.4092  11.7782  14.6265  14.8925  16.2268  19.7457  24.3607  26.5871

          k =-0.1250 0.8750-0.1250 (   415 PWs)   bands (ev):

    11.4662  11.4662  14.6670  15.9260  15.9260  22.8498  22.8498  23.8094

          k = 0.0000 0.0000 0.8750 (   398 PWs)   bands (ev):

    11.2575  11.3588  16.0214  16.0214  16.1920  21.9584  24.2253  24.2253

     the Fermi energy is    13.7448 ev

!    total energy              =     -54.80398585 Ry
     Harris-Foulkes estimate   =     -54.80398585 Ry
     estimated scf accuracy    <          2.3E-09 Ry

     The total energy is the sum of the following terms:

     one-electron contribution =       9.11238867 Ry
     hartree contribution      =       5.51699276 Ry
     xc contribution           =     -26.45682325 Ry
     ewald contribution        =     -42.97249836 Ry
     smearing contrib. (-TS)   =      -0.00404567 Ry

     total magnetization       =     2.30 Bohr mag/cell
     absolute magnetization    =     2.46 Bohr mag/cell

     convergence has been achieved in   9 iterations

     Forces acting on atoms (cartesian axes, Ry/au):

     atom    1 type  1   force =     0.00000000    0.00000000    0.00000000

     Total force =     0.000000     Total SCF correction =     0.000000


     Computing stress (Cartesian axis) and pressure

          total   stress  (Ry/bohr**3)                   (kbar)     P=    -1909.03
  -0.01297730  -0.00000000   0.00000000        -1909.03       -0.00        0.00
  -0.00000000  -0.01297730  -0.00000000           -0.00    -1909.03       -0.00
   0.00000000  -0.00000000  -0.01297730            0.00       -0.00    -1909.03


     Writing output data file ./Fe_scf_e45_k8_nb10.save/

     init_run     :      0.25s CPU      0.27s WALL (       1 calls)
     electrons    :      3.64s CPU      3.72s WALL (       1 calls)
     forces       :      0.03s CPU      0.03s WALL (       1 calls)
     stress       :      0.15s CPU      0.16s WALL (       1 calls)

     Called by init_run:
     wfcinit      :      0.16s CPU      0.17s WALL (       1 calls)
     potinit      :      0.01s CPU      0.01s WALL (       1 calls)
     hinit0       :      0.08s CPU      0.08s WALL (       1 calls)

     Called by electrons:
     c_bands      :      3.01s CPU      3.09s WALL (       9 calls)
     sum_band     :      0.51s CPU      0.52s WALL (       9 calls)
     v_of_rho     :      0.10s CPU      0.11s WALL (      10 calls)
     mix_rho      :      0.01s CPU      0.01s WALL (       9 calls)

     Called by c_bands:
     init_us_2    :      0.12s CPU      0.12s WALL (    1092 calls)
     cegterg      :      2.92s CPU      3.00s WALL (     468 calls)

     Called by sum_band:

     Called by *egterg:
     h_psi        :      2.42s CPU      2.48s WALL (    1530 calls)
     g_psi        :      0.01s CPU      0.01s WALL (    1010 calls)
     cdiaghg      :      0.18s CPU      0.19s WALL (    1478 calls)

     Called by h_psi:
     h_psi:calbec :      0.07s CPU      0.07s WALL (    1530 calls)
     vloc_psi     :      2.27s CPU      2.33s WALL (    1530 calls)
     add_vuspsi   :      0.07s CPU      0.07s WALL (    1530 calls)

     General routines
     calbec       :      0.08s CPU      0.09s WALL (    1790 calls)
     fft          :      0.04s CPU      0.04s WALL (     230 calls)
     ffts         :      0.00s CPU      0.00s WALL (      18 calls)
     fftw         :      2.45s CPU      2.51s WALL (   23068 calls)

     Parallel routines

     PWSCF        :      4.31s CPU      4.47s WALL


   This run was terminated on:  14: 2: 8  16Nov2020            

=------------------------------------------------------------------------------=
   JOB DONE.
=------------------------------------------------------------------------------=
