#  __      __   ______   __       __  _______    ______     
# |  \    /  \ /      \ |  \     /  \|       \  /      \    
#  \$$\  /  $$|  $$$$$$\| $$\   /  $$| $$$$$$$\|  $$$$$$\   
#   \$$\/  $$ | $$__| $$| $$$\ /  $$$| $$__/ $$| $$  | $$   
#    \$$  $$  | $$    $$| $$$$\  $$$$| $$    $$| $$  | $$   
#     \$$$$   | $$$$$$$$| $$\$$ $$ $$| $$$$$$$\| $$  | $$   
#     | $$    | $$  | $$| $$ \$$$| $$| $$__/ $$| $$__/ $$   
#     | $$    | $$  | $$| $$  \$ | $$| $$    $$ \$$    $$   
#      \$$     \$$   \$$ \$$      \$$ \$$$$$$$   \$$$$$$    
#                                                           
#        Version 4.2.0 Revision 14791 Hash a8d1f41          
#                        MPI Build                          
#                http://www.yambo-code.org                  
#
# BSK|Identifier              :394
#    |Dimension               :32
#    |Bands                   :7 - 10
#    |Exchange           [res]: yes
#    |Correlation        [res]: yes
#    |Kernel`s coupling       : no
#    |Exchange           [cpl]: no
#    |Correlation        [cpl]: no
#    |W interaction is bare   : no
#    |ALDA kernel in R-space  : no
#    |RL vectors    [exchange]:51
#    |RL vectors [correlation]:51
#    |E/h energy range    [ev]:-1.000000 - -1.000000
#    |Coupling range     [o/o]: 100.0000 -  100.0000
#  W |Interaction is diagonal : no
#    |Matrix size             :51
#    |Bands                   :1 - 60
#    |e/h energy range    [ev]:-1.000000 - -1.000000
#    |Poles              [o/o]: 100.0000
#    |RL vectors in the sum   :3473
#    |[r,Vnl] included        : yes
#    |Field direction         :0.1000E-4  0.000000  0.000000
#    |Coulomb Cutoff          :none
#    |xc-Kernel               :none
# RIM|RL components      [col]:0
#    |Random points      [col]:0
#
   CRYSTAL
   PRIMVEC
    2.495797  0.000000  0.000000
   -1.247898  2.161424  0.000000
    0.000000  0.000000  6.443175
   PRIMCOORD
     4   1
         5   1.24790   0.72047   0.00000
         5  -1.24790  -0.72047   3.22159
         7  -1.24790  -0.72047   0.00000
         7   1.24790   0.72047   3.22159
   BEGIN_BLOCK_DATAGRID_3D
   Generated with YPP  4   2   0
   BEGIN_DATAGRID_3D
    10  10  22
    0.00      0.00      0.00    
    2.495797  0.000000  0.000000
   -1.247898  2.161424  0.000000
    0.000000  0.000000  6.443175
   0.141E-11
   0.9202E-6
   0.4896E-4
   0.6734E-3
      0.0033
      0.0033
   0.6734E-3
   0.4896E-4
   0.9201E-6
   0.141E-11
   0.9201E-6
   0.9199E-6
   0.2846E-5
   0.4500E-4
   0.3531E-3
   0.7388E-3
   0.3531E-3
   0.4500E-4
   0.2846E-5
   0.9201E-6
   0.4899E-4
   0.4793E-4
   0.4899E-4
   0.4504E-4
   0.6027E-4
   0.3455E-4
   0.3455E-4
   0.6027E-4
   0.4504E-4
   0.4899E-4
   0.6742E-3
      0.0010
      0.0010
   0.6744E-3
   0.3536E-3
   0.3454E-4
   0.153E-11
   0.3453E-4
   0.3536E-3
   0.6742E-3
      0.0033
      0.0099
     0.01130
      0.0099
      0.0033
   0.7398E-3
   0.3454E-4
   0.3454E-4
   0.7399E-3
      0.0033
      0.0033
     0.02269
     0.02737
     0.02737
     0.02269
      0.0033
   0.3534E-3
   0.6024E-4
   0.3534E-3
      0.0033
   0.6747E-3
      0.0099
     0.02743
   0.2053E-8
     0.02743
      0.0099
   0.6748E-3
   0.4501E-4
   0.4501E-4
   0.6747E-3
   0.4905E-4
      0.0010
     0.01133
     0.02736
     0.02736
     0.01133
      0.0010
   0.4904E-4
   0.2844E-5
   0.4905E-4
   0.9204E-6
   0.4803E-4
      0.0010
      0.0099
     0.02265
      0.0099
      0.0010
   0.4802E-4
   0.9208E-6
   0.9204E-6
   0.141E-11
   0.9202E-6
   0.4896E-4
   0.6734E-3
      0.0033
      0.0033
   0.6734E-3
   0.4896E-4
   0.9201E-6
   0.141E-11
   0.2205E-6
      0.0031
     0.02115
     0.08635
    0.221248
    0.221246
     0.08636
     0.02115
      0.0031
   0.2205E-6
      0.0032
      0.0032
   0.9528E-3
     0.01291
    0.107726
    0.220807
    0.107687
     0.01291
   0.9504E-3
      0.0032
     0.02152
     0.02288
     0.02152
     0.01312
     0.01162
     0.09013
     0.09033
     0.01174
     0.01313
     0.02152
     0.08642
     0.07989
     0.07988
     0.08643
    0.109094
     0.09031
   0.7018E-4
     0.09044
    0.109042
     0.08642
    0.219456
    0.294890
    0.306092
    0.294847
    0.219369
    0.223365
     0.09070
     0.09067
    0.223211
    0.219456
    0.219547
    0.550947
    0.689195
    0.689087
    0.550851
    0.219451
    0.108943
     0.01201
    0.108902
    0.219547
     0.08624
    0.294059
    0.685601
   0.1505E-3
    0.685961
    0.293941
     0.08628
     0.01303
     0.01304
     0.08624
     0.02136
     0.08049
    0.304066
    0.687603
    0.688044
    0.303948
     0.08047
     0.02137
   0.9526E-3
     0.02136
      0.0031
     0.02287
     0.08108
    0.297422
    0.554607
    0.297400
     0.08106
     0.02289
      0.0031
      0.0031
   0.2205E-6
      0.0031
     0.02115
     0.08635
    0.221248
    0.221246
     0.08636
     0.02115
      0.0031
   0.2205E-6
   0.8145E-6
     0.01483
     0.09152
    0.302724
    0.610012
    0.610024
    0.302782
     0.09155
     0.01482
   0.8145E-6
     0.01443
     0.01444
      0.0052
     0.04188
    0.252563
    0.447270
    0.252489
     0.04188
      0.0052
     0.01443
     0.09196
    0.107094
     0.09196
     0.04231
     0.01726
    0.105675
    0.105821
     0.01732
     0.04228
     0.09196
    0.309217
    0.304247
    0.304238
    0.309312
    0.254239
    0.101969
   0.4185E-4
    0.102255
    0.254175
    0.309217
    0.616726
    0.593572
    0.512719
    0.593536
    0.616856
    0.450926
    0.103134
    0.103291
    0.450860
    0.616726
    0.616200
    0.798151
    0.539429
    0.539334
    0.798021
    0.616359
    0.253802
     0.01665
    0.253762
    0.616200
    0.307620
    0.593131
    0.532684
   0.2895E-4
    0.532499
    0.592999
    0.307838
     0.04208
     0.04204
    0.307620
     0.09172
    0.303855
    0.510336
    0.541315
    0.541232
    0.510104
    0.303900
     0.09176
      0.0054
     0.09172
     0.01468
    0.106823
    0.301989
    0.594750
    0.809779
    0.594701
    0.302021
    0.106836
     0.01467
     0.01468
   0.8145E-6
     0.01483
     0.09152
    0.302724
    0.610012
    0.610024
    0.302782
     0.09155
     0.01482
   0.8145E-6
   0.1506E-4
     0.01357
     0.06290
    0.170831
    0.312568
    0.312577
    0.170789
     0.06286
     0.01356
   0.1506E-4
     0.01374
     0.01374
      0.0066
     0.02087
    0.105941
    0.179454
    0.105963
     0.02087
      0.0066
     0.01374
     0.06050
     0.08238
     0.06050
     0.02104
      0.0041
     0.02840
     0.02842
      0.0041
     0.02104
     0.06050
    0.163002
    0.205462
    0.205477
    0.162964
    0.101292
     0.03014
   0.1118E-3
     0.03014
    0.101346
    0.163002
    0.309904
    0.301577
    0.263856
    0.301585
    0.309919
    0.176065
     0.02973
     0.02971
    0.176112
    0.309904
    0.310430
    0.334098
    0.154596
    0.154618
    0.334177
    0.310449
    0.102677
      0.0040
    0.102732
    0.310430
    0.165019
    0.300959
    0.158439
   0.2029E-4
    0.158522
    0.301026
    0.164908
     0.02090
     0.02090
    0.165019
     0.06201
    0.204408
    0.262191
    0.153572
    0.153617
    0.262329
    0.204447
     0.06197
      0.0066
     0.06201
     0.01374
     0.08363
    0.204268
    0.296251
    0.323971
    0.296281
    0.204299
     0.08360
     0.01374
     0.01374
   0.1506E-4
     0.01357
     0.06290
    0.170831
    0.312568
    0.312577
    0.170789
     0.06286
     0.01356
   0.1506E-4
   0.1328E-4
      0.0082
     0.02571
     0.04202
     0.05352
     0.05352
     0.04202
     0.02572
      0.0082
   0.1328E-4
      0.0082
      0.0082
      0.0062
      0.0081
     0.02039
     0.03023
     0.02039
      0.0081
      0.0062
      0.0082
     0.02649
     0.03594
     0.02649
      0.0093
   0.7260E-4
      0.0055
      0.0055
   0.6527E-4
      0.0093
     0.02649
     0.04206
     0.05847
     0.05847
     0.04206
     0.02178
      0.0048
   0.5521E-4
      0.0048
     0.02177
     0.04206
     0.05342
     0.05789
     0.05875
     0.05789
     0.05342
     0.03220
      0.0050
      0.0050
     0.03219
     0.05342
     0.05363
     0.05359
     0.03212
     0.03212
     0.05357
     0.05363
     0.02149
   0.9008E-4
     0.02148
     0.05363
     0.04207
     0.05852
     0.03093
   0.4831E-4
     0.03091
     0.05847
     0.04206
      0.0085
      0.0085
     0.04207
     0.02606
     0.05897
     0.05982
     0.03171
     0.03170
     0.05978
     0.05895
     0.02606
      0.0063
     0.02606
      0.0082
     0.03526
     0.05935
     0.06159
     0.05779
     0.06156
     0.05934
     0.03526
      0.0082
      0.0082
   0.1328E-4
      0.0082
     0.02571
     0.04202
     0.05352
     0.05352
     0.04202
     0.02572
      0.0082
   0.1328E-4
   0.1273E-4
      0.0041
     0.01135
     0.01123
      0.0034
      0.0034
     0.01125
     0.01135
      0.0041
   0.1273E-4
      0.0040
      0.0040
      0.0069
      0.0091
      0.0044
   0.1622E-3
      0.0044
      0.0091
      0.0069
      0.0040
     0.01121
     0.01141
     0.01121
      0.0088
      0.0053
   0.7801E-3
   0.7785E-3
      0.0053
      0.0088
     0.01121
     0.01178
     0.01688
     0.01688
     0.01178
      0.0043
   0.8396E-3
   0.2428E-4
   0.8377E-3
      0.0043
     0.01178
      0.0040
     0.01062
     0.01318
     0.01062
      0.0040
   0.1267E-3
   0.7197E-3
   0.7202E-3
   0.1258E-3
      0.0040
      0.0039
      0.0048
      0.0038
      0.0038
      0.0048
      0.0039
      0.0045
      0.0058
      0.0045
      0.0039
     0.01148
     0.01033
      0.0040
   0.4630E-4
      0.0040
     0.01034
     0.01149
      0.0091
      0.0091
     0.01148
     0.01111
     0.01645
     0.01293
      0.0042
      0.0042
     0.01294
     0.01647
     0.01112
      0.0068
     0.01111
      0.0043
     0.01158
     0.01639
      0.0097
      0.0039
      0.0097
     0.01641
     0.01158
      0.0043
      0.0043
   0.1273E-4
      0.0041
     0.01135
     0.01123
      0.0034
      0.0034
     0.01125
     0.01135
      0.0041
   0.1273E-4
   0.6858E-5
      0.0058
     0.01660
     0.02102
     0.01783
     0.01782
     0.02100
     0.01658
      0.0058
   0.6858E-5
      0.0058
      0.0058
     0.02093
     0.03122
     0.02528
     0.01917
     0.02528
     0.03121
     0.02093
      0.0058
     0.01656
      0.0059
     0.01657
     0.03135
     0.02684
     0.01191
     0.01192
     0.02686
     0.03135
     0.01656
     0.02223
      0.0071
      0.0071
     0.02225
     0.02539
     0.01134
   0.2292E-5
     0.01136
     0.02540
     0.02223
     0.02031
      0.0085
      0.0014
      0.0085
     0.02034
     0.01932
     0.01162
     0.01162
     0.01933
     0.02031
     0.02037
      0.0091
      0.0010
      0.0010
      0.0091
     0.02038
     0.02521
     0.02626
     0.02521
     0.02037
     0.02290
      0.0086
   0.8900E-3
   0.2220E-4
   0.8857E-3
      0.0087
     0.02290
     0.03162
     0.03162
     0.02290
     0.01697
      0.0073
      0.0013
      0.0013
      0.0013
      0.0013
      0.0073
     0.01697
     0.02116
     0.01697
      0.0053
      0.0058
      0.0072
      0.0080
      0.0080
      0.0080
      0.0072
      0.0058
      0.0054
      0.0053
   0.6858E-5
      0.0058
     0.01660
     0.02102
     0.01783
     0.01782
     0.02100
     0.01658
      0.0058
   0.6858E-5
   0.1470E-4
     0.01091
     0.04029
     0.08696
    0.140927
    0.140931
     0.08700
     0.04031
     0.01090
   0.1470E-4
     0.01094
     0.01095
     0.05608
    0.115323
    0.147361
    0.153126
    0.147381
    0.115330
     0.05608
     0.01094
     0.04041
      0.0069
     0.04040
    0.114495
    0.137724
     0.07816
     0.07814
    0.137694
    0.114505
     0.04041
     0.08316
     0.01249
     0.01250
     0.08307
    0.143508
     0.07892
   0.8349E-5
     0.07889
    0.143544
     0.08316
    0.136014
     0.04805
      0.0012
     0.04803
    0.135956
    0.149205
     0.07902
     0.07901
    0.149214
    0.136014
    0.135355
     0.07969
     0.01365
     0.01366
     0.07967
    0.135312
    0.143514
    0.137962
    0.143523
    0.135355
     0.08156
     0.04766
     0.01370
   0.5158E-5
     0.01371
     0.04764
     0.08154
    0.113895
    0.113886
     0.08156
     0.03996
     0.01331
   0.9106E-3
     0.01322
     0.01322
   0.9400E-3
     0.01332
     0.03996
     0.05612
     0.03996
     0.01137
      0.0068
     0.01179
     0.04830
     0.07979
     0.04830
     0.01179
      0.0068
     0.01136
     0.01137
   0.1470E-4
     0.01091
     0.04029
     0.08696
    0.140927
    0.140931
     0.08700
     0.04031
     0.01090
   0.1470E-4
   0.7507E-5
     0.01573
     0.08728
    0.268325
    0.514264
    0.514237
    0.268309
     0.08730
     0.01575
   0.7507E-5
     0.01577
     0.01575
    0.108208
    0.290008
    0.468381
    0.551388
    0.468328
    0.289932
    0.108228
     0.01577
     0.08623
      0.0065
     0.08620
    0.291881
    0.397312
    0.279602
    0.279581
    0.397237
    0.291790
     0.08623
    0.267177
     0.03380
     0.03381
    0.267216
    0.478402
    0.283909
   0.2866E-4
    0.283897
    0.478315
    0.267177
    0.521363
    0.183716
      0.0087
    0.183656
    0.521554
    0.566099
    0.280403
    0.280421
    0.566030
    0.521363
    0.521716
    0.317592
     0.05679
     0.05672
    0.317537
    0.521862
    0.478523
    0.398485
    0.478521
    0.521716
    0.267246
    0.182880
     0.05697
   0.1083E-3
     0.05683
    0.182818
    0.267255
    0.293805
    0.293801
    0.267246
     0.08507
     0.03354
      0.0095
     0.05696
     0.05688
      0.0094
     0.03354
     0.08507
    0.107089
     0.08507
     0.01533
      0.0064
     0.03431
    0.187339
    0.320072
    0.187329
     0.03430
      0.0064
     0.01533
     0.01533
   0.7507E-5
     0.01573
     0.08728
    0.268325
    0.514264
    0.514237
    0.268309
     0.08730
     0.01575
   0.7507E-5
   0.1965E-6
      0.0096
     0.06260
    0.228765
    0.517338
    0.517336
    0.228712
     0.06257
      0.0096
   0.1965E-6
      0.0095
      0.0095
     0.07004
    0.221735
    0.609230
    0.997307
    0.609294
    0.221736
     0.07001
      0.0095
     0.06335
      0.0032
     0.06340
    0.222073
    0.568863
    0.954234
    0.954088
    0.569173
    0.222086
     0.06335
    0.232735
     0.03354
     0.03356
    0.232907
    0.597899
    0.933856
   0.1064E-3
    0.933786
    0.598163
    0.232735
    0.516512
    0.235606
     0.02034
    0.235670
    0.516420
    0.968031
    0.949768
    0.949861
    0.968276
    0.516512
    0.516482
    0.445879
    0.137519
    0.137387
    0.446035
    0.516406
    0.599810
    0.574392
    0.599880
    0.516482
    0.233612
    0.235934
    0.135806
   0.7189E-4
    0.135496
    0.236053
    0.233691
    0.221082
    0.221092
    0.233612
     0.06393
     0.03390
     0.01999
    0.139174
    0.138967
     0.01990
     0.03392
     0.06393
     0.07058
     0.06393
      0.0095
      0.0031
     0.03289
    0.231040
    0.438865
    0.231154
     0.03290
      0.0031
      0.0095
      0.0095
   0.1965E-6
      0.0096
     0.06260
    0.228765
    0.517338
    0.517336
    0.228712
     0.06257
      0.0096
   0.1965E-6
   0.5513E-7
   0.2499E-3
      0.0017
      0.0073
     0.01967
     0.01967
      0.0073
      0.0017
   0.2502E-3
   0.5513E-7
   0.2525E-3
   0.2523E-3
      0.0018
      0.0067
     0.02797
     0.05374
     0.02797
      0.0067
      0.0018
   0.2525E-3
      0.0017
   0.9002E-4
      0.0017
      0.0065
     0.03268
     0.08528
     0.08515
     0.03267
      0.0065
      0.0017
      0.0069
      0.0011
      0.0011
      0.0069
     0.02851
     0.08933
   0.3153E-4
     0.08922
     0.02852
      0.0069
     0.01944
     0.01024
      0.0011
     0.01024
     0.01943
     0.05732
     0.08712
     0.08716
     0.05733
     0.01944
     0.01945
     0.02269
     0.01125
     0.01126
     0.02271
     0.01944
     0.02840
     0.03231
     0.02841
     0.01945
      0.0069
     0.01030
     0.01152
   0.1656E-4
     0.01150
     0.01030
      0.0069
      0.0064
      0.0064
      0.0069
      0.0017
      0.0011
      0.0011
     0.01110
     0.01106
      0.0011
      0.0011
      0.0017
      0.0017
      0.0017
   0.2625E-3
   0.1043E-3
      0.0011
     0.01053
     0.02292
     0.01053
      0.0011
   0.1048E-3
   0.2626E-3
   0.2625E-3
   0.5513E-7
   0.2499E-3
      0.0017
      0.0073
     0.01967
     0.01967
      0.0073
      0.0017
   0.2502E-3
   0.5513E-7
   0.5453E-7
   0.2586E-3
      0.0017
      0.0069
     0.01945
     0.01945
      0.0069
      0.0017
   0.2589E-3
   0.5453E-7
   0.2564E-3
   0.2562E-3
      0.0017
      0.0064
     0.02840
     0.05708
     0.02842
      0.0064
      0.0017
   0.2564E-3
      0.0017
   0.1108E-3
      0.0017
      0.0066
     0.03223
     0.08721
     0.08720
     0.03225
      0.0066
      0.0017
      0.0073
      0.0011
      0.0011
      0.0073
     0.02785
     0.08314
   0.3160E-4
     0.08302
     0.02786
      0.0073
     0.01969
     0.01055
      0.0011
     0.01055
     0.01968
     0.05348
     0.08516
     0.08508
     0.05345
     0.01969
     0.01967
     0.02284
     0.01110
     0.01113
     0.02286
     0.01967
     0.02797
     0.03260
     0.02796
     0.01967
      0.0073
     0.01049
     0.01086
   0.1704E-4
     0.01085
     0.01049
      0.0073
      0.0067
      0.0067
      0.0073
      0.0017
      0.0011
      0.0011
     0.01128
     0.01124
      0.0011
      0.0011
      0.0017
      0.0018
      0.0017
   0.2461E-3
   0.9627E-4
      0.0011
     0.01025
     0.02261
     0.01025
      0.0011
   0.9684E-4
   0.2462E-3
   0.2461E-3
   0.5453E-7
   0.2586E-3
      0.0017
      0.0069
     0.01945
     0.01945
      0.0069
      0.0017
   0.2589E-3
   0.5453E-7
   0.1980E-6
      0.0094
     0.06404
    0.233617
    0.516342
    0.516358
    0.233583
     0.06401
      0.0094
   0.1980E-6
      0.0095
      0.0095
     0.07039
    0.221354
    0.599911
    0.970960
    0.599995
    0.221352
     0.07036
      0.0095
     0.06321
      0.0031
     0.06326
    0.221012
    0.577250
    0.950413
    0.950455
    0.577582
    0.221018
     0.06321
    0.229429
     0.03328
     0.03331
    0.229616
    0.611064
    0.970383
   0.1071E-3
    0.970290
    0.611272
    0.229429
    0.517307
    0.232308
     0.02041
    0.232433
    0.517239
    0.999915
    0.953873
    0.953711
    1.000000
    0.517307
    0.517321
    0.440797
    0.138759
    0.138746
    0.441008
    0.517258
    0.609263
    0.571767
    0.609254
    0.517321
    0.228663
    0.231948
    0.140631
   0.7332E-4
    0.140435
    0.232118
    0.228746
    0.221975
    0.221973
    0.228663
     0.06267
     0.03293
     0.02083
    0.137001
    0.136787
     0.02075
     0.03297
     0.06268
     0.06981
     0.06267
      0.0095
      0.0032
     0.03393
    0.236729
    0.447782
    0.236863
     0.03395
      0.0032
      0.0095
      0.0095
   0.1980E-6
      0.0094
     0.06404
    0.233617
    0.516342
    0.516358
    0.233583
     0.06401
      0.0094
   0.1980E-6
   0.7545E-5
     0.01540
     0.08500
    0.267264
    0.521645
    0.521626
    0.267252
     0.08502
     0.01542
   0.7545E-5
     0.01540
     0.01539
    0.107296
    0.293437
    0.478585
    0.565037
    0.478574
    0.293391
    0.107319
     0.01540
     0.08609
      0.0062
     0.08607
    0.291591
    0.395417
    0.280439
    0.280426
    0.395391
    0.291518
     0.08609
    0.268376
     0.03405
     0.03405
    0.268417
    0.468603
    0.276077
   0.2778E-4
    0.276048
    0.468534
    0.268376
    0.514397
    0.186015
      0.0097
    0.185936
    0.514613
    0.550354
    0.279463
    0.279448
    0.550277
    0.514397
    0.514085
    0.318895
     0.05691
     0.05681
    0.318833
    0.514261
    0.468354
    0.394040
    0.468345
    0.514085
    0.268334
    0.186873
     0.05681
   0.1061E-3
     0.05661
    0.186791
    0.268352
    0.289540
    0.289537
    0.268334
     0.08723
     0.03434
      0.0089
     0.05666
     0.05655
      0.0088
     0.03433
     0.08723
    0.108424
     0.08723
     0.01582
      0.0063
     0.03355
    0.182261
    0.316210
    0.182231
     0.03353
      0.0063
     0.01582
     0.01582
   0.7545E-5
     0.01540
     0.08500
    0.267264
    0.521645
    0.521626
    0.267252
     0.08502
     0.01542
   0.7545E-5
   0.1475E-4
     0.01128
     0.04014
     0.08150
    0.135619
    0.135617
     0.08153
     0.04015
     0.01127
   0.1475E-4
     0.01123
     0.01124
     0.05595
    0.113848
    0.143515
    0.149069
    0.143523
    0.113844
     0.05594
     0.01123
     0.04004
      0.0071
     0.04003
    0.114668
    0.137939
     0.07904
     0.07902
    0.137902
    0.114669
     0.04004
     0.08541
     0.01264
     0.01265
     0.08532
    0.147339
     0.07828
   0.8541E-5
     0.07826
    0.147378
     0.08541
    0.140607
     0.04813
   0.7536E-3
     0.04810
    0.140538
    0.152972
     0.07814
     0.07813
    0.152991
    0.140607
    0.141262
     0.08000
     0.01330
     0.01331
     0.07997
    0.141217
    0.147347
    0.137639
    0.147356
    0.141262
     0.08697
     0.04852
     0.01324
   0.5108E-5
     0.01326
     0.04850
     0.08694
    0.115272
    0.115264
     0.08697
     0.04048
     0.01184
      0.0010
     0.01371
     0.01372
      0.0011
     0.01184
     0.04048
     0.05590
     0.04048
     0.01082
      0.0072
     0.01337
     0.04783
     0.07983
     0.04783
     0.01337
      0.0072
     0.01081
     0.01082
   0.1475E-4
     0.01128
     0.04014
     0.08150
    0.135619
    0.135617
     0.08153
     0.04015
     0.01127
   0.1475E-4
   0.6843E-5
      0.0055
     0.01699
     0.02292
     0.02035
     0.02034
     0.02290
     0.01699
      0.0055
   0.6843E-5
      0.0054
      0.0054
     0.02141
     0.03176
     0.02524
     0.01930
     0.02524
     0.03177
     0.02142
      0.0054
     0.01701
      0.0056
     0.01701
     0.03163
     0.02670
     0.01162
     0.01163
     0.02672
     0.03162
     0.01701
     0.02165
      0.0072
      0.0072
     0.02168
     0.02513
     0.01218
   0.2345E-5
     0.01220
     0.02513
     0.02165
     0.01783
      0.0082
      0.0011
      0.0082
     0.01786
     0.01918
     0.01191
     0.01191
     0.01917
     0.01783
     0.01780
      0.0081
      0.0011
      0.0011
      0.0081
     0.01781
     0.02531
     0.02729
     0.02531
     0.01780
     0.02102
      0.0080
      0.0013
   0.2245E-4
      0.0013
      0.0080
     0.02102
     0.03135
     0.03135
     0.02102
     0.01660
      0.0071
      0.0013
   0.8878E-3
   0.8886E-3
      0.0013
      0.0071
     0.01659
     0.02116
     0.01660
      0.0059
      0.0057
      0.0071
      0.0086
      0.0092
      0.0086
      0.0071
      0.0057
      0.0059
      0.0059
   0.6843E-5
      0.0055
     0.01699
     0.02292
     0.02035
     0.02034
     0.02290
     0.01699
      0.0055
   0.6843E-5
   0.1272E-4
      0.0041
     0.01099
     0.01176
      0.0040
      0.0040
     0.01177
     0.01099
      0.0041
   0.1272E-4
      0.0043
      0.0043
      0.0066
      0.0087
      0.0044
   0.1187E-3
      0.0044
      0.0086
      0.0066
      0.0043
     0.01113
     0.01161
     0.01113
      0.0090
      0.0055
   0.7653E-3
   0.7638E-3
      0.0055
      0.0090
     0.01113
     0.01123
     0.01610
     0.01609
     0.01122
      0.0045
   0.7094E-3
   0.2407E-4
   0.7080E-3
      0.0045
     0.01123
      0.0034
      0.0096
     0.01279
      0.0096
      0.0034
   0.1570E-3
   0.8243E-3
   0.8253E-3
   0.1576E-3
      0.0034
      0.0034
      0.0039
      0.0043
      0.0043
      0.0039
      0.0034
      0.0043
      0.0049
      0.0043
      0.0034
     0.01152
      0.0099
      0.0040
   0.4608E-4
      0.0040
      0.0099
     0.01153
      0.0087
      0.0087
     0.01152
     0.01122
     0.01651
     0.01304
      0.0038
      0.0038
     0.01304
     0.01653
     0.01123
      0.0067
     0.01122
      0.0040
     0.01144
     0.01658
     0.01056
      0.0048
     0.01056
     0.01659
     0.01144
      0.0040
      0.0040
   0.1272E-4
      0.0041
     0.01099
     0.01176
      0.0040
      0.0040
     0.01177
     0.01099
      0.0041
   0.1272E-4
   0.1329E-4
      0.0081
     0.02672
     0.04208
     0.05344
     0.05344
     0.04208
     0.02672
      0.0081
   0.1329E-4
      0.0082
      0.0082
      0.0064
      0.0093
     0.02185
     0.03252
     0.02185
      0.0093
      0.0064
      0.0082
     0.02595
     0.03529
     0.02594
      0.0081
   0.1012E-3
      0.0048
      0.0048
   0.9023E-4
      0.0081
     0.02595
     0.04205
     0.05967
     0.05967
     0.04204
     0.02048
      0.0055
   0.5579E-4
      0.0055
     0.02048
     0.04205
     0.05355
     0.06162
     0.06065
     0.06162
     0.05355
     0.03058
      0.0054
      0.0054
     0.03057
     0.05355
     0.05335
     0.05779
     0.03170
     0.03170
     0.05778
     0.05334
     0.02077
   0.7300E-4
     0.02075
     0.05335
     0.04204
     0.06106
     0.03292
   0.4863E-4
     0.03291
     0.06103
     0.04204
      0.0088
      0.0088
     0.04204
     0.02637
     0.05919
     0.05965
     0.03212
     0.03211
     0.05962
     0.05918
     0.02637
      0.0063
     0.02637
      0.0082
     0.03598
     0.05880
     0.05794
     0.05355
     0.05793
     0.05879
     0.03598
      0.0082
      0.0082
   0.1329E-4
      0.0081
     0.02672
     0.04208
     0.05344
     0.05344
     0.04208
     0.02672
      0.0081
   0.1329E-4
   0.1512E-4
     0.01383
     0.06050
    0.163018
    0.310322
    0.310333
    0.162986
     0.06047
     0.01383
   0.1512E-4
     0.01366
     0.01365
      0.0067
     0.02102
    0.101260
    0.175208
    0.101292
     0.02102
      0.0067
     0.01366
     0.06286
     0.08367
     0.06286
     0.02085
      0.0038
     0.02994
     0.02996
      0.0038
     0.02086
     0.06286
    0.170880
    0.203743
    0.203753
    0.170840
    0.105970
     0.02825
   0.1104E-3
     0.02828
    0.106065
    0.170880
    0.313016
    0.296309
    0.259603
    0.296313
    0.313045
    0.178639
     0.02867
     0.02869
    0.178724
    0.313016
    0.312490
    0.323218
    0.153539
    0.153551
    0.323273
    0.312512
    0.104551
      0.0039
    0.104649
    0.312490
    0.168893
    0.296919
    0.149717
   0.1976E-4
    0.149763
    0.296957
    0.168777
     0.02100
     0.02100
    0.168893
     0.06139
    0.204794
    0.261258
    0.154579
    0.154603
    0.261348
    0.204826
     0.06135
      0.0066
     0.06139
     0.01366
     0.08245
    0.204938
    0.301622
    0.333323
    0.301622
    0.204957
     0.08243
     0.01366
     0.01366
   0.1512E-4
     0.01383
     0.06050
    0.163018
    0.310322
    0.310333
    0.162986
     0.06047
     0.01383
   0.1512E-4
   0.8262E-6
     0.01437
     0.09199
    0.309185
    0.616243
    0.616243
    0.309233
     0.09202
     0.01436
   0.8262E-6
     0.01475
     0.01476
      0.0052
     0.04229
    0.254080
    0.451251
    0.254006
     0.04228
      0.0052
     0.01475
     0.09158
    0.106711
     0.09158
     0.04192
     0.01720
    0.102454
    0.102630
     0.01728
     0.04188
     0.09158
    0.302674
    0.302055
    0.302059
    0.302783
    0.252544
    0.106192
   0.4110E-4
    0.106453
    0.252434
    0.302674
    0.609434
    0.594658
    0.510410
    0.594674
    0.609587
    0.447892
    0.105171
    0.105284
    0.447764
    0.609434
    0.609911
    0.810538
    0.541151
    0.541182
    0.810481
    0.610093
    0.252931
     0.01789
    0.252849
    0.609911
    0.304119
    0.595230
    0.548171
   0.2900E-4
    0.548057
    0.595118
    0.304344
     0.04215
     0.04210
    0.304119
     0.09178
    0.302420
    0.513146
    0.539714
    0.539611
    0.512919
    0.302459
     0.09182
      0.0051
     0.09178
     0.01452
    0.106982
    0.304311
    0.593617
    0.798980
    0.593570
    0.304342
    0.106991
     0.01452
     0.01452
   0.8262E-6
     0.01437
     0.09199
    0.309185
    0.616243
    0.616243
    0.309233
     0.09202
     0.01436
   0.8262E-6
   0.2179E-6
      0.0031
     0.02155
     0.08641
    0.219567
    0.219559
     0.08642
     0.02156
      0.0031
   0.2179E-6
      0.0031
      0.0031
   0.9671E-3
     0.01313
    0.109403
    0.223936
    0.109367
     0.01313
   0.9646E-3
      0.0031
     0.02118
     0.02287
     0.02118
     0.01292
     0.01203
     0.09049
     0.09068
     0.01214
     0.01293
     0.02118
     0.08633
     0.08127
     0.08127
     0.08636
    0.108113
     0.09057
   0.7180E-4
     0.09062
    0.108041
     0.08633
    0.221393
    0.297344
    0.305069
    0.297382
    0.221334
    0.221632
     0.09036
     0.09025
    0.221472
    0.221393
    0.221299
    0.555056
    0.687153
    0.687369
    0.555134
    0.221220
    0.108241
     0.01177
    0.108187
    0.221299
     0.08647
    0.298197
    0.690472
   0.1498E-3
    0.690822
    0.298104
     0.08652
     0.01301
     0.01301
     0.08647
     0.02133
     0.08067
    0.307250
    0.689552
    0.689612
    0.307045
     0.08064
     0.02134
   0.9645E-3
     0.02133
      0.0031
     0.02286
     0.08009
    0.294987
    0.551871
    0.294910
     0.08007
     0.02287
      0.0031
      0.0031
   0.2179E-6
      0.0031
     0.02155
     0.08641
    0.219567
    0.219559
     0.08642
     0.02156
      0.0031
   0.2179E-6
   0.141E-11
   0.9202E-6
   0.4896E-4
   0.6734E-3
      0.0033
      0.0033
   0.6734E-3
   0.4896E-4
   0.9201E-6
   0.141E-11
   0.9201E-6
   0.9199E-6
   0.2846E-5
   0.4500E-4
   0.3531E-3
   0.7388E-3
   0.3531E-3
   0.4500E-4
   0.2846E-5
   0.9201E-6
   0.4899E-4
   0.4793E-4
   0.4899E-4
   0.4504E-4
   0.6027E-4
   0.3455E-4
   0.3455E-4
   0.6027E-4