
     Program PWSCF v.5.0.2 (svn rev. 9656) starts on 30Jun2015 at 17:27:36 

     This program is part of the open-source Quantum ESPRESSO suite
     for quantum simulation of materials; please cite
         "P. Giannozzi et al., J. Phys.:Condens. Matter 21 395502 (2009);
          URL http://www.quantum-espresso.org", 
     in publications or presentations arising from this work. More details at
     http://www.quantum-espresso.org/quote.php

     Parallel version (MPI), running on     1 processors

     Current dimensions of program PWSCF are:
     Max number of different atomic species (ntypx) = 10
     Max number of k-points (npk) =  40000
     Max angular momentum in pseudopotentials (lmaxx) =  3
     Waiting for input...
     Reading input from standard input

     Atomic positions and unit cell read from directory:
     ./Fe_nscf_e70_k10_nb20_so.save/


     Fixed quantization axis for GGA:     0.000000    0.000000    1.000000

     Subspace diagonalization in iterative solution of the eigenvalue problem:
     a serial algorithm will be used


     G-vector sticks info
     --------------------
     sticks:   dense  smooth     PW     G-vecs:    dense   smooth      PW
     Sum         467     467    151                 6363     6363    1157

     Generating pointlists ...
     new r_m :   0.3572 (alat units)  1.9362 (a.u.) for type    1


     bravais-lattice index     =            3
     lattice parameter (alat)  =       5.4200  a.u.
     unit-cell volume          =      79.6100 (a.u.)^3
     number of atoms/cell      =            1
     number of atomic types    =            1
     number of electrons       =         8.00
     number of Kohn-Sham states=           20
     kinetic-energy cutoff     =      70.0000  Ry
     charge density cutoff     =     280.0000  Ry
     Exchange-correlation      = PBE ( 1 4 3 4 0)
     EXX-fraction              =        0.00
     Noncollinear calculation with spin-orbit


     celldm(1)=   5.420000  celldm(2)=   0.000000  celldm(3)=   0.000000
     celldm(4)=   0.000000  celldm(5)=   0.000000  celldm(6)=   0.000000

     crystal axes: (cart. coord. in units of alat)
               a(1) = (   0.500000   0.500000   0.500000 )  
               a(2) = (  -0.500000   0.500000   0.500000 )  
               a(3) = (  -0.500000  -0.500000   0.500000 )  

     reciprocal axes: (cart. coord. in units 2 pi/alat)
               b(1) = (  1.000000  0.000000  1.000000 )  
               b(2) = ( -1.000000  1.000000  0.000000 )  
               b(3) = (  0.000000 -1.000000  1.000000 )  


     PseudoPot. # 1 for Fe read from file:
     ./Fe.rel-pbe-n-nc.UPF
     MD5 check sum: 94258d60e67ccf79570366bad73e55f4
     Pseudo is Norm-conserving + core correction, Zval =  8.0
     Generated using "atomic" code by A. Dal Corso  v.5.0.2 svn rev. 10042M
     Using radial grid of 1191 points,  4 beta functions with: 
                l(1) =   1
                l(2) =   1
                l(3) =   2
                l(4) =   2

     atomic species   valence    mass     pseudopotential
        Fe             8.00    55.84500     Fe( 1.00)

     16 Sym. Ops., with inversion, found


                                    s                        frac. trans.

      isym =  1     identity                                     

 Time Reversal            0
 cryst.   s( 1) = (     1          0          0      )
                  (     0          1          0      )
                  (     0          0          1      )

 cart.    s( 1) = (  1.0000000  0.0000000  0.0000000 )
                  (  0.0000000  1.0000000  0.0000000 )
                  (  0.0000000  0.0000000  1.0000000 )


      isym =  2     180 deg rotation - cart. axis [0,0,1]        

 Time Reversal            0
 cryst.   s( 2) = (     0          0          1      )
                  (     1         -1          1      )
                  (     1          0          0      )

 cart.    s( 2) = ( -1.0000000  0.0000000  0.0000000 )
                  (  0.0000000 -1.0000000  0.0000000 )
                  (  0.0000000  0.0000000  1.0000000 )


      isym =  3     180 deg rotation - cart. axis [0,1,0]        

 Time Reversal            1
 cryst.   s( 3) = (    -1          1         -1      )
                  (     0          0         -1      )
                  (     0         -1          0      )

 cart.    s( 3) = ( -1.0000000  0.0000000  0.0000000 )
                  (  0.0000000  1.0000000  0.0000000 )
                  (  0.0000000  0.0000000 -1.0000000 )


      isym =  4     180 deg rotation - cart. axis [1,0,0]        

 Time Reversal            1
 cryst.   s( 4) = (     0         -1          0      )
                  (    -1          0          0      )
                  (    -1          1         -1      )

 cart.    s( 4) = (  1.0000000  0.0000000  0.0000000 )
                  (  0.0000000 -1.0000000  0.0000000 )
                  (  0.0000000  0.0000000 -1.0000000 )


      isym =  5     180 deg rotation - cart. axis [1,1,0]        

 Time Reversal            1
 cryst.   s( 5) = (     0          0         -1      )
                  (     0         -1          0      )
                  (    -1          0          0      )

 cart.    s( 5) = (  0.0000000  1.0000000  0.0000000 )
                  (  1.0000000  0.0000000  0.0000000 )
                  (  0.0000000  0.0000000 -1.0000000 )


      isym =  6     180 deg rotation - cart. axis [1,-1,0]       

 Time Reversal            1
 cryst.   s( 6) = (    -1          0          0      )
                  (    -1          1         -1      )
                  (     0          0         -1      )

 cart.    s( 6) = (  0.0000000 -1.0000000  0.0000000 )
                  ( -1.0000000  0.0000000  0.0000000 )
                  (  0.0000000  0.0000000 -1.0000000 )


      isym =  7      90 deg rotation - cart. axis [0,0,-1]       

 Time Reversal            0
 cryst.   s( 7) = (     1         -1          1      )
                  (     1          0          0      )
                  (     0          1          0      )

 cart.    s( 7) = (  0.0000000  1.0000000  0.0000000 )
                  ( -1.0000000  0.0000000  0.0000000 )
                  (  0.0000000  0.0000000  1.0000000 )


      isym =  8      90 deg rotation - cart. axis [0,0,1]        

 Time Reversal            0
 cryst.   s( 8) = (     0          1          0      )
                  (     0          0          1      )
                  (     1         -1          1      )

 cart.    s( 8) = (  0.0000000 -1.0000000  0.0000000 )
                  (  1.0000000  0.0000000  0.0000000 )
                  (  0.0000000  0.0000000  1.0000000 )


      isym =  9     inversion                                    

 Time Reversal            0
 cryst.   s( 9) = (    -1          0          0      )
                  (     0         -1          0      )
                  (     0          0         -1      )

 cart.    s( 9) = ( -1.0000000  0.0000000  0.0000000 )
                  (  0.0000000 -1.0000000  0.0000000 )
                  (  0.0000000  0.0000000 -1.0000000 )


      isym = 10     inv. 180 deg rotation - cart. axis [0,0,1]   

 Time Reversal            0
 cryst.   s(10) = (     0          0         -1      )
                  (    -1          1         -1      )
                  (    -1          0          0      )

 cart.    s(10) = (  1.0000000  0.0000000  0.0000000 )
                  (  0.0000000  1.0000000  0.0000000 )
                  (  0.0000000  0.0000000 -1.0000000 )


      isym = 11     inv. 180 deg rotation - cart. axis [0,1,0]   

 Time Reversal            1
 cryst.   s(11) = (     1         -1          1      )
                  (     0          0          1      )
                  (     0          1          0      )

 cart.    s(11) = (  1.0000000  0.0000000  0.0000000 )
                  (  0.0000000 -1.0000000  0.0000000 )
                  (  0.0000000  0.0000000  1.0000000 )


      isym = 12     inv. 180 deg rotation - cart. axis [1,0,0]   

 Time Reversal            1
 cryst.   s(12) = (     0          1          0      )
                  (     1          0          0      )
                  (     1         -1          1      )

 cart.    s(12) = ( -1.0000000  0.0000000  0.0000000 )
                  (  0.0000000  1.0000000  0.0000000 )
                  (  0.0000000  0.0000000  1.0000000 )


      isym = 13     inv. 180 deg rotation - cart. axis [1,1,0]   

 Time Reversal            1
 cryst.   s(13) = (     0          0          1      )
                  (     0          1          0      )
                  (     1          0          0      )

 cart.    s(13) = (  0.0000000 -1.0000000  0.0000000 )
                  ( -1.0000000  0.0000000  0.0000000 )
                  (  0.0000000  0.0000000  1.0000000 )


      isym = 14     inv. 180 deg rotation - cart. axis [1,-1,0]  

 Time Reversal            1
 cryst.   s(14) = (     1          0          0      )
                  (     1         -1          1      )
                  (     0          0          1      )

 cart.    s(14) = (  0.0000000  1.0000000  0.0000000 )
                  (  1.0000000  0.0000000  0.0000000 )
                  (  0.0000000  0.0000000  1.0000000 )


      isym = 15     inv.  90 deg rotation - cart. axis [0,0,-1]  

 Time Reversal            0
 cryst.   s(15) = (    -1          1         -1      )
                  (    -1          0          0      )
                  (     0         -1          0      )

 cart.    s(15) = (  0.0000000 -1.0000000  0.0000000 )
                  (  1.0000000  0.0000000  0.0000000 )
                  (  0.0000000  0.0000000 -1.0000000 )


      isym = 16     inv.  90 deg rotation - cart. axis [0,0,1]   

 Time Reversal            0
 cryst.   s(16) = (     0         -1          0      )
                  (     0          0         -1      )
                  (    -1          1         -1      )

 cart.    s(16) = (  0.0000000  1.0000000  0.0000000 )
                  ( -1.0000000  0.0000000  0.0000000 )
                  (  0.0000000  0.0000000 -1.0000000 )


     the magnetic double point group is D_4h(4/mmm) [C_4h (4/m) ]
     using the double point group C_4h (4/m) 
     there are 16 classes and  8 irreducible representations
     the character table:

       E     -E    C4    -C4   C4^2  -C4^2 C4^3  -C4^3 i     -i    S4^3  -S4^3
                                                                              
G_5+   1.00 -1.00  0.71 -0.71  0.00  0.00  0.71 -0.71  1.00 -1.00  0.71 -0.71
G_6+   1.00 -1.00  0.71 -0.71  0.00  0.00  0.71 -0.71  1.00 -1.00  0.71 -0.71
G_7+   1.00 -1.00 -0.71  0.71  0.00  0.00 -0.71  0.71  1.00 -1.00 -0.71  0.71
G_8+   1.00 -1.00 -0.71  0.71  0.00  0.00 -0.71  0.71  1.00 -1.00 -0.71  0.71
G_5-   1.00 -1.00  0.71 -0.71  0.00  0.00  0.71 -0.71 -1.00  1.00 -0.71  0.71
G_6-   1.00 -1.00  0.71 -0.71  0.00  0.00  0.71 -0.71 -1.00  1.00 -0.71  0.71
G_7-   1.00 -1.00 -0.71  0.71  0.00  0.00 -0.71  0.71 -1.00  1.00  0.71 -0.71
G_8-   1.00 -1.00 -0.71  0.71  0.00  0.00 -0.71  0.71 -1.00  1.00  0.71 -0.71

       s_h   -s_h  S4    -S4  
                              
G_5+   0.00  0.00  0.71 -0.71
G_6+   0.00  0.00  0.71 -0.71
G_7+   0.00  0.00 -0.71  0.71
G_8+   0.00  0.00 -0.71  0.71
G_5-   0.00  0.00 -0.71  0.71
G_6-   0.00  0.00 -0.71  0.71
G_7-   0.00  0.00  0.71 -0.71
G_8-   0.00  0.00  0.71 -0.71

     imaginary part

       E     -E    C4    -C4   C4^2  -C4^2 C4^3  -C4^3 i     -i    S4^3  -S4^3
                                                                              
G_5+   0.00  0.00  0.71 -0.71  1.00 -1.00 -0.71  0.71  0.00  0.00  0.71 -0.71
G_6+   0.00  0.00 -0.71  0.71 -1.00  1.00  0.71 -0.71  0.00  0.00 -0.71  0.71
G_7+   0.00  0.00 -0.71  0.71  1.00 -1.00  0.71 -0.71  0.00  0.00 -0.71  0.71
G_8+   0.00  0.00  0.71 -0.71 -1.00  1.00 -0.71  0.71  0.00  0.00  0.71 -0.71
G_5-   0.00  0.00  0.71 -0.71  1.00 -1.00 -0.71  0.71  0.00  0.00 -0.71  0.71
G_6-   0.00  0.00 -0.71  0.71 -1.00  1.00  0.71 -0.71  0.00  0.00  0.71 -0.71
G_7-   0.00  0.00 -0.71  0.71  1.00 -1.00  0.71 -0.71  0.00  0.00  0.71 -0.71
G_8-   0.00  0.00  0.71 -0.71 -1.00  1.00 -0.71  0.71  0.00  0.00 -0.71  0.71

       s_h   -s_h  S4    -S4  
                              
G_5+   1.00 -1.00 -0.71  0.71
G_6+  -1.00  1.00  0.71 -0.71
G_7+   1.00 -1.00  0.71 -0.71
G_8+  -1.00  1.00 -0.71  0.71
G_5-  -1.00  1.00  0.71 -0.71
G_6-   1.00 -1.00 -0.71  0.71
G_7-  -1.00  1.00 -0.71  0.71
G_8-   1.00 -1.00  0.71 -0.71

     the symmetry operations in each class:
     E             1
     C4^2          2
     C4^3          3
     C4            4
     i             5
     s_h           6
     S4            7
     S4^3          8
     -E           -1
     -C4^2        -2
     -C4^3        -3
     -C4          -4
     -i           -5
     -s_h         -6
     -S4          -7
     -S4^3        -8

   Cartesian axes

     site n.     atom                  positions (alat units)
         1           Fe  tau(   1) = (   0.0000000   0.0000000   0.0000000  )

   Crystallographic axes

     site n.     atom                  positions (cryst. coord.)
         1           Fe  tau(   1) = (  0.0000000  0.0000000  0.0000000  )

     number of k points=    99  gaussian smearing, width (Ry)=  0.0250
                       cart. coord. in units 2pi/alat
        k(    1) = (   0.0000000   0.0000000   0.1000000), wk =   0.0020000
        k(    2) = (   0.0000000  -0.1000000   0.2000000), wk =   0.0080000
        k(    3) = (   0.0000000  -0.2000000   0.3000000), wk =   0.0080000
        k(    4) = (   0.0000000  -0.3000000   0.4000000), wk =   0.0080000
        k(    5) = (   0.0000000  -0.4000000   0.5000000), wk =   0.0080000
        k(    6) = (  -0.1000000   0.1000000   0.1000000), wk =   0.0080000
        k(    7) = (  -0.1000000  -0.1000000   0.3000000), wk =   0.0080000
        k(    8) = (  -0.1000000  -0.2000000   0.4000000), wk =   0.0160000
        k(    9) = (  -0.1000000  -0.3000000   0.5000000), wk =   0.0160000
        k(   10) = (  -0.1000000   0.6000000  -0.4000000), wk =   0.0160000
        k(   11) = (  -0.2000000   0.2000000   0.1000000), wk =   0.0080000
        k(   12) = (  -0.2000000  -0.2000000   0.5000000), wk =   0.0080000
        k(   13) = (  -0.2000000   0.7000000  -0.4000000), wk =   0.0160000
        k(   14) = (  -0.3000000   0.3000000   0.1000000), wk =   0.0080000
        k(   15) = (  -0.3000000   0.2000000   0.2000000), wk =   0.0160000
        k(   16) = (  -0.3000000   0.7000000  -0.3000000), wk =   0.0080000
        k(   17) = (  -0.4000000   0.4000000   0.1000000), wk =   0.0080000
        k(   18) = (  -0.4000000   0.3000000   0.2000000), wk =   0.0160000
        k(   19) = (   0.5000000  -0.5000000   0.1000000), wk =   0.0040000
        k(   20) = (   0.5000000  -0.6000000   0.2000000), wk =   0.0160000
        k(   21) = (   0.5000000  -0.7000000   0.3000000), wk =   0.0160000
        k(   22) = (   0.4000000  -0.6000000   0.3000000), wk =   0.0080000
        k(   23) = (   0.0000000   0.0000000   0.3000000), wk =   0.0020000
        k(   24) = (   0.0000000  -0.1000000   0.4000000), wk =   0.0080000
        k(   25) = (   0.0000000  -0.2000000   0.5000000), wk =   0.0080000
        k(   26) = (   0.0000000  -0.3000000   0.6000000), wk =   0.0080000
        k(   27) = (  -0.1000000  -0.1000000   0.5000000), wk =   0.0080000
        k(   28) = (  -0.1000000  -0.2000000   0.6000000), wk =   0.0160000
        k(   29) = (  -0.1000000   0.7000000  -0.3000000), wk =   0.0160000
        k(   30) = (  -0.2000000   0.8000000  -0.3000000), wk =   0.0080000
        k(   31) = (  -0.3000000   0.3000000   0.3000000), wk =   0.0080000
        k(   32) = (   0.6000000  -0.6000000   0.3000000), wk =   0.0080000
        k(   33) = (   0.5000000  -0.5000000   0.3000000), wk =   0.0040000
        k(   34) = (   0.5000000  -0.6000000   0.4000000), wk =   0.0160000
        k(   35) = (   0.0000000   0.0000000   0.5000000), wk =   0.0020000
        k(   36) = (   0.0000000  -0.1000000   0.6000000), wk =   0.0080000
        k(   37) = (   0.0000000  -0.2000000   0.7000000), wk =   0.0080000
        k(   38) = (  -0.1000000  -0.1000000   0.7000000), wk =   0.0080000
        k(   39) = (  -0.1000000   0.8000000  -0.2000000), wk =   0.0160000
        k(   40) = (   0.5000000  -0.5000000   0.5000000), wk =   0.0020000
        k(   41) = (   0.0000000   0.0000000   0.7000000), wk =   0.0020000
        k(   42) = (   0.0000000  -0.1000000   0.8000000), wk =   0.0080000
        k(   43) = (  -0.1000000   0.9000000  -0.1000000), wk =   0.0080000
        k(   44) = (   0.0000000   0.0000000   0.9000000), wk =   0.0020000
        k(   45) = (   0.0000000   0.1000000   0.0000000), wk =   0.0040000
        k(   46) = (  -0.1000000   0.2000000   0.0000000), wk =   0.0080000
        k(   47) = (   0.2000000   0.0000000  -0.1000000), wk =   0.0080000
        k(   48) = (  -0.2000000   0.3000000   0.0000000), wk =   0.0080000
        k(   49) = (   0.3000000   0.0000000  -0.2000000), wk =   0.0080000
        k(   50) = (  -0.3000000   0.4000000   0.0000000), wk =   0.0080000
        k(   51) = (   0.4000000   0.0000000  -0.3000000), wk =   0.0080000
        k(   52) = (  -0.4000000   0.5000000   0.0000000), wk =   0.0080000
        k(   53) = (   0.5000000   0.0000000  -0.4000000), wk =   0.0080000
        k(   54) = (  -0.1000000   0.3000000  -0.1000000), wk =   0.0160000
        k(   55) = (  -0.2000000   0.4000000  -0.1000000), wk =   0.0160000
        k(   56) = (   0.4000000  -0.1000000  -0.2000000), wk =   0.0160000
        k(   57) = (  -0.3000000   0.5000000  -0.1000000), wk =   0.0160000
        k(   58) = (   0.5000000  -0.1000000  -0.3000000), wk =   0.0160000
        k(   59) = (   0.6000000  -0.4000000  -0.1000000), wk =   0.0080000
        k(   60) = (   0.2000000   0.1000000  -0.2000000), wk =   0.0160000
        k(   61) = (  -0.2000000   0.5000000  -0.2000000), wk =   0.0160000
        k(   62) = (   0.7000000  -0.4000000  -0.2000000), wk =   0.0160000
        k(   63) = (  -0.4000000  -0.2000000   0.7000000), wk =   0.0160000
        k(   64) = (   0.3000000   0.1000000  -0.3000000), wk =   0.0160000
        k(   65) = (   0.2000000   0.2000000  -0.3000000), wk =   0.0080000
        k(   66) = (   0.4000000   0.1000000  -0.4000000), wk =   0.0160000
        k(   67) = (   0.3000000   0.2000000  -0.4000000), wk =   0.0160000
        k(   68) = (   0.2000000  -0.4000000   0.3000000), wk =   0.0160000
        k(   69) = (  -0.5000000   0.1000000   0.5000000), wk =   0.0080000
        k(   70) = (  -0.6000000   0.2000000   0.5000000), wk =   0.0160000
        k(   71) = (   0.2000000   0.5000000  -0.6000000), wk =   0.0160000
        k(   72) = (  -0.7000000   0.3000000   0.5000000), wk =   0.0080000
        k(   73) = (  -0.6000000   0.3000000   0.4000000), wk =   0.0160000
        k(   74) = (   0.0000000   0.3000000   0.0000000), wk =   0.0040000
        k(   75) = (  -0.1000000   0.4000000   0.0000000), wk =   0.0080000
        k(   76) = (   0.4000000   0.0000000  -0.1000000), wk =   0.0080000
        k(   77) = (  -0.2000000   0.5000000   0.0000000), wk =   0.0080000
        k(   78) = (   0.5000000   0.0000000  -0.2000000), wk =   0.0080000
        k(   79) = (  -0.3000000   0.6000000   0.0000000), wk =   0.0080000
        k(   80) = (   0.6000000   0.0000000  -0.3000000), wk =   0.0080000
        k(   81) = (  -0.1000000   0.5000000  -0.1000000), wk =   0.0160000
        k(   82) = (  -0.2000000   0.6000000  -0.1000000), wk =   0.0160000
        k(   83) = (   0.6000000  -0.1000000  -0.2000000), wk =   0.0160000
        k(   84) = (   0.7000000  -0.3000000  -0.1000000), wk =   0.0080000
        k(   85) = (   0.8000000  -0.3000000  -0.2000000), wk =   0.0160000
        k(   86) = (  -0.6000000   0.3000000   0.6000000), wk =   0.0160000
        k(   87) = (  -0.5000000   0.3000000   0.5000000), wk =   0.0080000
        k(   88) = (  -0.6000000   0.4000000   0.5000000), wk =   0.0080000
        k(   89) = (   0.0000000   0.5000000   0.0000000), wk =   0.0040000
        k(   90) = (  -0.1000000   0.6000000   0.0000000), wk =   0.0080000
        k(   91) = (   0.6000000   0.0000000  -0.1000000), wk =   0.0080000
        k(   92) = (  -0.2000000   0.7000000   0.0000000), wk =   0.0080000
        k(   93) = (   0.7000000   0.0000000  -0.2000000), wk =   0.0080000
        k(   94) = (  -0.1000000   0.7000000  -0.1000000), wk =   0.0160000
        k(   95) = (   0.8000000  -0.2000000  -0.1000000), wk =   0.0080000
        k(   96) = (   0.0000000   0.7000000   0.0000000), wk =   0.0040000
        k(   97) = (  -0.1000000   0.8000000   0.0000000), wk =   0.0080000
        k(   98) = (   0.8000000   0.0000000  -0.1000000), wk =   0.0080000
        k(   99) = (   0.0000000   0.9000000   0.0000000), wk =   0.0040000

                       cryst. coord.
        k(    1) = (   0.0500000   0.0500000   0.0500000), wk =   0.0020000
        k(    2) = (   0.0500000   0.0500000   0.1500000), wk =   0.0080000
        k(    3) = (   0.0500000   0.0500000   0.2500000), wk =   0.0080000
        k(    4) = (   0.0500000   0.0500000   0.3500000), wk =   0.0080000
        k(    5) = (   0.0500000   0.0500000   0.4500000), wk =   0.0080000
        k(    6) = (   0.0500000   0.1500000   0.0500000), wk =   0.0080000
        k(    7) = (   0.0500000   0.1500000   0.2500000), wk =   0.0080000
        k(    8) = (   0.0500000   0.1500000   0.3500000), wk =   0.0160000
        k(    9) = (   0.0500000   0.1500000   0.4500000), wk =   0.0160000
        k(   10) = (   0.0500000   0.1500000  -0.4500000), wk =   0.0160000
        k(   11) = (   0.0500000   0.2500000   0.0500000), wk =   0.0080000
        k(   12) = (   0.0500000   0.2500000   0.4500000), wk =   0.0080000
        k(   13) = (   0.0500000   0.2500000  -0.4500000), wk =   0.0160000
        k(   14) = (   0.0500000   0.3500000   0.0500000), wk =   0.0080000
        k(   15) = (   0.0500000   0.3500000   0.1500000), wk =   0.0160000
        k(   16) = (   0.0500000   0.3500000  -0.3500000), wk =   0.0080000
        k(   17) = (   0.0500000   0.4500000   0.0500000), wk =   0.0080000
        k(   18) = (   0.0500000   0.4500000   0.1500000), wk =   0.0160000
        k(   19) = (   0.0500000  -0.4500000   0.0500000), wk =   0.0040000
        k(   20) = (   0.0500000  -0.4500000   0.1500000), wk =   0.0160000
        k(   21) = (   0.0500000  -0.4500000   0.2500000), wk =   0.0160000
        k(   22) = (   0.0500000  -0.3500000   0.2500000), wk =   0.0080000
        k(   23) = (   0.1500000   0.1500000   0.1500000), wk =   0.0020000
        k(   24) = (   0.1500000   0.1500000   0.2500000), wk =   0.0080000
        k(   25) = (   0.1500000   0.1500000   0.3500000), wk =   0.0080000
        k(   26) = (   0.1500000   0.1500000   0.4500000), wk =   0.0080000
        k(   27) = (   0.1500000   0.2500000   0.3500000), wk =   0.0080000
        k(   28) = (   0.1500000   0.2500000   0.4500000), wk =   0.0160000
        k(   29) = (   0.1500000   0.2500000  -0.4500000), wk =   0.0160000
        k(   30) = (   0.1500000   0.3500000  -0.4500000), wk =   0.0080000
        k(   31) = (   0.1500000   0.4500000   0.1500000), wk =   0.0080000
        k(   32) = (   0.1500000  -0.4500000   0.1500000), wk =   0.0080000
        k(   33) = (   0.1500000  -0.3500000   0.1500000), wk =   0.0040000
        k(   34) = (   0.1500000  -0.3500000   0.2500000), wk =   0.0160000
        k(   35) = (   0.2500000   0.2500000   0.2500000), wk =   0.0020000
        k(   36) = (   0.2500000   0.2500000   0.3500000), wk =   0.0080000
        k(   37) = (   0.2500000   0.2500000   0.4500000), wk =   0.0080000
        k(   38) = (   0.2500000   0.3500000   0.4500000), wk =   0.0080000
        k(   39) = (   0.2500000   0.3500000  -0.4500000), wk =   0.0160000
        k(   40) = (   0.2500000  -0.2500000   0.2500000), wk =   0.0020000
        k(   41) = (   0.3500000   0.3500000   0.3500000), wk =   0.0020000
        k(   42) = (   0.3500000   0.3500000   0.4500000), wk =   0.0080000
        k(   43) = (   0.3500000   0.4500000  -0.4500000), wk =   0.0080000
        k(   44) = (   0.4500000   0.4500000   0.4500000), wk =   0.0020000
        k(   45) = (   0.0500000   0.0500000  -0.0500000), wk =   0.0040000
        k(   46) = (   0.0500000   0.1500000  -0.0500000), wk =   0.0080000
        k(   47) = (   0.0500000  -0.1500000  -0.1500000), wk =   0.0080000
        k(   48) = (   0.0500000   0.2500000  -0.0500000), wk =   0.0080000
        k(   49) = (   0.0500000  -0.2500000  -0.2500000), wk =   0.0080000
        k(   50) = (   0.0500000   0.3500000  -0.0500000), wk =   0.0080000
        k(   51) = (   0.0500000  -0.3500000  -0.3500000), wk =   0.0080000
        k(   52) = (   0.0500000   0.4500000  -0.0500000), wk =   0.0080000
        k(   53) = (   0.0500000  -0.4500000  -0.4500000), wk =   0.0080000
        k(   54) = (   0.0500000   0.1500000  -0.1500000), wk =   0.0160000
        k(   55) = (   0.0500000   0.2500000  -0.1500000), wk =   0.0160000
        k(   56) = (   0.0500000  -0.3500000  -0.2500000), wk =   0.0160000
        k(   57) = (   0.0500000   0.3500000  -0.1500000), wk =   0.0160000
        k(   58) = (   0.0500000  -0.4500000  -0.3500000), wk =   0.0160000
        k(   59) = (   0.0500000  -0.5500000  -0.1500000), wk =   0.0080000
        k(   60) = (   0.0500000  -0.1500000  -0.2500000), wk =   0.0160000
        k(   61) = (   0.0500000   0.2500000  -0.2500000), wk =   0.0160000
        k(   62) = (   0.0500000  -0.6500000  -0.2500000), wk =   0.0160000
        k(   63) = (   0.0500000   0.4500000   0.6500000), wk =   0.0160000
        k(   64) = (   0.0500000  -0.2500000  -0.3500000), wk =   0.0160000
        k(   65) = (   0.0500000  -0.1500000  -0.3500000), wk =   0.0080000
        k(   66) = (   0.0500000  -0.3500000  -0.4500000), wk =   0.0160000
        k(   67) = (   0.0500000  -0.2500000  -0.4500000), wk =   0.0160000
        k(   68) = (   0.0500000  -0.1500000   0.2500000), wk =   0.0160000
        k(   69) = (   0.0500000   0.5500000   0.4500000), wk =   0.0080000
        k(   70) = (   0.0500000   0.6500000   0.4500000), wk =   0.0160000
        k(   71) = (   0.0500000  -0.1500000  -0.6500000), wk =   0.0160000
        k(   72) = (   0.0500000   0.7500000   0.4500000), wk =   0.0080000
        k(   73) = (   0.0500000   0.6500000   0.3500000), wk =   0.0160000
        k(   74) = (   0.1500000   0.1500000  -0.1500000), wk =   0.0040000
        k(   75) = (   0.1500000   0.2500000  -0.1500000), wk =   0.0080000
        k(   76) = (   0.1500000  -0.2500000  -0.2500000), wk =   0.0080000
        k(   77) = (   0.1500000   0.3500000  -0.1500000), wk =   0.0080000
        k(   78) = (   0.1500000  -0.3500000  -0.3500000), wk =   0.0080000
        k(   79) = (   0.1500000   0.4500000  -0.1500000), wk =   0.0080000
        k(   80) = (   0.1500000  -0.4500000  -0.4500000), wk =   0.0080000
        k(   81) = (   0.1500000   0.2500000  -0.2500000), wk =   0.0160000
        k(   82) = (   0.1500000   0.3500000  -0.2500000), wk =   0.0160000
        k(   83) = (   0.1500000  -0.4500000  -0.3500000), wk =   0.0160000
        k(   84) = (   0.1500000  -0.5500000  -0.2500000), wk =   0.0080000
        k(   85) = (   0.1500000  -0.6500000  -0.3500000), wk =   0.0160000
        k(   86) = (   0.1500000   0.7500000   0.4500000), wk =   0.0160000
        k(   87) = (   0.1500000   0.6500000   0.3500000), wk =   0.0080000
        k(   88) = (   0.1500000   0.7500000   0.3500000), wk =   0.0080000
        k(   89) = (   0.2500000   0.2500000  -0.2500000), wk =   0.0040000
        k(   90) = (   0.2500000   0.3500000  -0.2500000), wk =   0.0080000
        k(   91) = (   0.2500000  -0.3500000  -0.3500000), wk =   0.0080000
        k(   92) = (   0.2500000   0.4500000  -0.2500000), wk =   0.0080000
        k(   93) = (   0.2500000  -0.4500000  -0.4500000), wk =   0.0080000
        k(   94) = (   0.2500000   0.3500000  -0.3500000), wk =   0.0160000
        k(   95) = (   0.2500000  -0.5500000  -0.3500000), wk =   0.0080000
        k(   96) = (   0.3500000   0.3500000  -0.3500000), wk =   0.0040000
        k(   97) = (   0.3500000   0.4500000  -0.3500000), wk =   0.0080000
        k(   98) = (   0.3500000  -0.4500000  -0.4500000), wk =   0.0080000
        k(   99) = (   0.4500000   0.4500000  -0.4500000), wk =   0.0040000

     Dense  grid:     6363 G-vectors     FFT dimensions: (  25,  25,  25)

     Largest allocated arrays     est. size (Mb)     dimensions
        Kohn-Sham Wavefunctions         0.49 Mb     (   1590,   20)
        NL pseudopotentials             0.19 Mb     (    795,   16)
        Each V/rho on FFT grid          0.24 Mb     (  15625)
        Each G-vector array             0.05 Mb     (   6363)
        G-vector shells                 0.00 Mb     (     98)
     Largest temporary arrays     est. size (Mb)     dimensions
        Auxiliary wavefunctions         1.94 Mb     (   1590,   80)
        Each subspace H/S matrix        0.10 Mb     (  80,  80)
        Each <psi_i|beta_j> matrix      0.01 Mb     (     16,   2,   20)

     Check: negative/imaginary core charge=   -0.000002    0.000000

     The potential is recalculated from file :
     ./Fe_nscf_e70_k10_nb20_so.save/charge-density.dat

     Starting wfc are   18 randomized atomic wfcs

     total cpu time spent up to now is        0.6 secs

     per-process dynamical memory:    13.0 Mb

     Band Structure Calculation
     Davidson diagonalization with overlap

     Computing kpt #:     1
     total cpu time spent up to now is        1.0 secs

     Computing kpt #:     2
     total cpu time spent up to now is        1.3 secs

     Computing kpt #:     3
     total cpu time spent up to now is        1.6 secs

     Computing kpt #:     4
     total cpu time spent up to now is        1.9 secs

     Computing kpt #:     5
     total cpu time spent up to now is        2.2 secs

     Computing kpt #:     6
     total cpu time spent up to now is        2.6 secs

     Computing kpt #:     7
     total cpu time spent up to now is        2.9 secs

     Computing kpt #:     8
     total cpu time spent up to now is        3.2 secs

     Computing kpt #:     9
     total cpu time spent up to now is        3.5 secs

     Computing kpt #:    10
     total cpu time spent up to now is        3.7 secs

     Computing kpt #:    11
     total cpu time spent up to now is        4.1 secs

     Computing kpt #:    12
     total cpu time spent up to now is        4.3 secs

     Computing kpt #:    13
     total cpu time spent up to now is        4.6 secs

     Computing kpt #:    14
     total cpu time spent up to now is        4.9 secs

     Computing kpt #:    15
     total cpu time spent up to now is        5.2 secs

     Computing kpt #:    16
     total cpu time spent up to now is        5.6 secs

     Computing kpt #:    17
     total cpu time spent up to now is        5.9 secs

     Computing kpt #:    18
     total cpu time spent up to now is        6.2 secs

     Computing kpt #:    19
     total cpu time spent up to now is        6.5 secs

     Computing kpt #:    20
     total cpu time spent up to now is        6.7 secs

     Computing kpt #:    21
     total cpu time spent up to now is        7.0 secs

     Computing kpt #:    22
     total cpu time spent up to now is        7.3 secs

     Computing kpt #:    23
     total cpu time spent up to now is        7.6 secs

     Computing kpt #:    24
     total cpu time spent up to now is        7.9 secs

     Computing kpt #:    25
     total cpu time spent up to now is        8.2 secs

     Computing kpt #:    26
     total cpu time spent up to now is        8.5 secs

     Computing kpt #:    27
     total cpu time spent up to now is        8.7 secs

     Computing kpt #:    28
     total cpu time spent up to now is        9.0 secs

     Computing kpt #:    29
     total cpu time spent up to now is        9.3 secs

     Computing kpt #:    30
     total cpu time spent up to now is        9.6 secs

     Computing kpt #:    31
     total cpu time spent up to now is        9.9 secs

     Computing kpt #:    32
     total cpu time spent up to now is       10.2 secs

     Computing kpt #:    33
     total cpu time spent up to now is       10.5 secs

     Computing kpt #:    34
     total cpu time spent up to now is       10.8 secs

     Computing kpt #:    35
     total cpu time spent up to now is       11.1 secs

     Computing kpt #:    36
     total cpu time spent up to now is       11.3 secs

     Computing kpt #:    37
     total cpu time spent up to now is       11.6 secs

     Computing kpt #:    38
     total cpu time spent up to now is       11.9 secs

     Computing kpt #:    39
     total cpu time spent up to now is       12.2 secs

     Computing kpt #:    40
     total cpu time spent up to now is       12.7 secs

     Computing kpt #:    41
     total cpu time spent up to now is       13.0 secs

     Computing kpt #:    42
     total cpu time spent up to now is       13.2 secs

     Computing kpt #:    43
     total cpu time spent up to now is       13.5 secs

     Computing kpt #:    44
     total cpu time spent up to now is       13.8 secs

     Computing kpt #:    45
     total cpu time spent up to now is       14.1 secs

     Computing kpt #:    46
     total cpu time spent up to now is       14.4 secs

     Computing kpt #:    47
     total cpu time spent up to now is       14.8 secs

     Computing kpt #:    48
     total cpu time spent up to now is       15.1 secs

     Computing kpt #:    49
     total cpu time spent up to now is       15.4 secs

     Computing kpt #:    50
     total cpu time spent up to now is       15.7 secs

     Computing kpt #:    51
     total cpu time spent up to now is       16.0 secs

     Computing kpt #:    52
     total cpu time spent up to now is       16.3 secs

     Computing kpt #:    53
     total cpu time spent up to now is       16.6 secs

     Computing kpt #:    54
     total cpu time spent up to now is       16.9 secs

     Computing kpt #:    55
     total cpu time spent up to now is       17.2 secs

     Computing kpt #:    56
     total cpu time spent up to now is       17.5 secs

     Computing kpt #:    57
     total cpu time spent up to now is       17.8 secs

     Computing kpt #:    58
     total cpu time spent up to now is       18.0 secs

     Computing kpt #:    59
     total cpu time spent up to now is       18.3 secs

     Computing kpt #:    60
     total cpu time spent up to now is       18.6 secs

     Computing kpt #:    61
     total cpu time spent up to now is       18.9 secs

     Computing kpt #:    62
     total cpu time spent up to now is       19.2 secs

     Computing kpt #:    63
     total cpu time spent up to now is       19.5 secs

     Computing kpt #:    64
     total cpu time spent up to now is       19.8 secs

     Computing kpt #:    65
     total cpu time spent up to now is       20.1 secs

     Computing kpt #:    66
     total cpu time spent up to now is       20.4 secs

     Computing kpt #:    67
     total cpu time spent up to now is       20.7 secs

     Computing kpt #:    68
     total cpu time spent up to now is       20.9 secs

     Computing kpt #:    69
     total cpu time spent up to now is       21.2 secs

     Computing kpt #:    70
     total cpu time spent up to now is       21.5 secs

     Computing kpt #:    71
     total cpu time spent up to now is       21.8 secs

     Computing kpt #:    72
     total cpu time spent up to now is       22.1 secs

     Computing kpt #:    73
     total cpu time spent up to now is       22.4 secs

     Computing kpt #:    74
     total cpu time spent up to now is       22.7 secs

     Computing kpt #:    75
     total cpu time spent up to now is       23.0 secs

     Computing kpt #:    76
     total cpu time spent up to now is       23.4 secs

     Computing kpt #:    77
     total cpu time spent up to now is       23.7 secs

     Computing kpt #:    78
     total cpu time spent up to now is       24.0 secs

     Computing kpt #:    79
     total cpu time spent up to now is       24.3 secs

     Computing kpt #:    80
     total cpu time spent up to now is       24.7 secs

     Computing kpt #:    81
     total cpu time spent up to now is       25.0 secs

     Computing kpt #:    82
     total cpu time spent up to now is       25.3 secs

     Computing kpt #:    83
     total cpu time spent up to now is       25.6 secs

     Computing kpt #:    84
     total cpu time spent up to now is       25.9 secs

     Computing kpt #:    85
     total cpu time spent up to now is       26.3 secs

     Computing kpt #:    86
     total cpu time spent up to now is       26.6 secs

     Computing kpt #:    87
     total cpu time spent up to now is       26.9 secs

     Computing kpt #:    88
     total cpu time spent up to now is       27.3 secs

     Computing kpt #:    89
     total cpu time spent up to now is       27.5 secs

     Computing kpt #:    90
     total cpu time spent up to now is       27.8 secs

     Computing kpt #:    91
     total cpu time spent up to now is       28.1 secs

     Computing kpt #:    92
     total cpu time spent up to now is       28.4 secs

     Computing kpt #:    93
     total cpu time spent up to now is       28.7 secs

     Computing kpt #:    94
     total cpu time spent up to now is       29.0 secs

     Computing kpt #:    95
     total cpu time spent up to now is       29.3 secs

     Computing kpt #:    96
     total cpu time spent up to now is       29.5 secs

     Computing kpt #:    97
     total cpu time spent up to now is       29.8 secs

     Computing kpt #:    98
     total cpu time spent up to now is       30.1 secs

     Computing kpt #:    99
     total cpu time spent up to now is       30.4 secs

     ethr =  1.25E-10,  avg # of iterations = 14.2

     total cpu time spent up to now is       30.4 secs

     End of band structure calculation

          k = 0.0000 0.0000 0.1000     band energies (ev):

     5.2844   5.4482  11.2323  11.2907  11.3141  12.3567  12.4723  13.5256
    13.5786  13.6167  15.4113  15.5722  38.3217  38.6093  39.2522  39.2565
    39.5790  39.5849  42.1066  42.6699

     occupation numbers 
     1.0000   1.0000   1.0000   1.0000   1.0000   1.0000   1.0000   0.7059
     0.6259   0.5645   0.0000   0.0000   0.0000   0.0000   0.0000   0.0000
     0.0000   0.0000   0.0000   0.0000

          k = 0.0000-0.1000 0.2000     band energies (ev):

     6.0615   6.2338  11.0871  11.2275  11.7058  12.1691  12.5329  13.3375
    13.4834  14.0438  15.1413  15.6437  35.2690  35.5088  37.5671  37.6193
    38.9607  39.0651  41.5455  41.8164

     occupation numbers 
     1.0000   1.0000   1.0000   1.0000   1.0000   1.0000   1.0000   0.9071
     0.7633   0.0534   0.0000   0.0000   0.0000   0.0000   0.0000   0.0000
     0.0000   0.0000   0.0000   0.0000

          k = 0.0000-0.2000 0.3000     band energies (ev):

     7.4135   7.6736  10.7939  11.1083  12.1682  12.4289  12.6038  12.9837
    13.2283  14.8315  15.0404  15.7172  30.1127  30.7848  35.1132  35.2218
    36.7968  37.5169  40.9573  41.1385

     occupation numbers 
     1.0000   1.0000   1.0000   1.0000   1.0000   1.0000   1.0000   0.9974
     0.9622   0.0000   0.0000   0.0000   0.0000   0.0000   0.0000   0.0000
     0.0000   0.0000   0.0000   0.0000

          k = 0.0000-0.3000 0.4000     band energies (ev):

     8.5746   9.3426  10.5105  11.4944  12.3998  12.6400  12.8283  13.0799
    13.2459  15.1798  15.7477  15.8208  25.2668  26.2581  33.2349  33.3258
    34.3881  35.1552  40.8116  40.9986

     occupation numbers 
     1.0000   1.0000   1.0000   1.0000   1.0000   1.0000   0.9997   0.9917
     0.9558   0.0000   0.0000   0.0000   0.0000   0.0000   0.0000   0.0000
     0.0000   0.0000   0.0000   0.0000

          k = 0.0000-0.4000 0.5000     band energies (ev):

     8.8437  10.3077  10.3408  12.1361  12.4035  12.4947  13.5489  13.8041
    14.0142  15.3026  16.0358  16.3979  21.6614  23.0646  32.2319  32.2947
    32.9369  33.6440  40.7919  41.0369

     occupation numbers 
     1.0000   1.0000   1.0000   1.0000   1.0000   1.0000   0.6716   0.2687
     0.0681   0.0000   0.0000   0.0000   0.0000   0.0000   0.0000   0.0000
     0.0000   0.0000   0.0000   0.0000

          k =-0.1000 0.1000 0.1000     band energies (ev):

     5.6792   5.8454  11.1308  11.1525  11.6310  12.3810  12.3965  13.3969
    13.4189  13.9566  15.4467  15.4569  37.2786  37.2833  37.3147  37.3228
    39.7609  40.1505  40.3876  41.4733

     occupation numbers 
     1.0000   1.0000   1.0000   1.0000   1.0000   1.0000   1.0000   0.8592
     0.8376   0.1055   0.0000   0.0000   0.0000   0.0000   0.0000   0.0000
     0.0000   0.0000   0.0000   0.0000

          k =-0.1000-0.1000 0.3000     band energies (ev):

     7.1235   7.3397  11.0151  11.0207  11.9848  12.2504  12.6731  13.2118
    13.2541  14.6081  14.8473  15.7869  32.8245  33.2204  33.3208  33.8782
    38.4120  39.0620  39.0830  39.1375

     occupation numbers 
     1.0000   1.0000   1.0000   1.0000   1.0000   1.0000   1.0000   0.9676
     0.9525   0.0000   0.0000   0.0000   0.0000   0.0000   0.0000   0.0000
     0.0000   0.0000   0.0000   0.0000

          k =-0.1000-0.2000 0.4000     band energies (ev):

     8.4566   8.9241  10.6757  10.9565  12.1189  12.7440  12.8294  12.9954
    13.2934  14.8681  15.4854  15.9709  27.9294  28.7204  31.0885  31.6556
    35.8813  36.3768  39.7294  39.9107

     occupation numbers 
     1.0000   1.0000   1.0000   1.0000   1.0000   0.9999   0.9997   0.9970
     0.9341   0.0000   0.0000   0.0000   0.0000   0.0000   0.0000   0.0000
     0.0000   0.0000   0.0000   0.0000

          k =-0.1000-0.3000 0.5000     band energies (ev):

     9.0925  10.3198  10.4996  11.2554  12.3398  12.5807  12.9071  13.1378
    14.7096  15.0993  15.8988  16.8111  23.4639  24.5842  29.6729  30.2522
    34.1533  34.5578  40.4761  40.7387

     occupation numbers 
     1.0000   1.0000   1.0000   1.0000   1.0000   1.0000   0.9991   0.9844
     0.0000   0.0000   0.0000   0.0000   0.0000   0.0000   0.0000   0.0000
     0.0000   0.0000   0.0000   0.0000

          k =-0.1000 0.6000-0.4000     band energies (ev):

     9.1335  10.4420  10.7461  11.4903  12.3642  12.5273  13.0806  13.4439
    15.1752  16.0033  16.0812  17.5703  21.0952  22.5539  29.1410  29.7137
    33.5522  33.9187  40.7787  41.0887

     occupation numbers 
     1.0000   1.0000   1.0000   1.0000   1.0000   1.0000   0.9916   0.8108
     0.0000   0.0000   0.0000   0.0000   0.0000   0.0000   0.0000   0.0000
     0.0000   0.0000   0.0000   0.0000

          k =-0.2000 0.2000 0.1000     band energies (ev):

     6.7850   6.9802  10.8630  10.9969  12.2674  12.2897  12.4708  13.0701
    13.1962  14.6406  15.2715  15.5475  32.7143  33.1801  35.0873  35.2661
    36.9347  37.8523  40.4953  40.7978

     occupation numbers 
     1.0000   1.0000   1.0000   1.0000   1.0000   1.0000   1.0000   0.9926
     0.9720   0.0000   0.0000   0.0000   0.0000   0.0000   0.0000   0.0000
     0.0000   0.0000   0.0000   0.0000

          k =-0.2000-0.2000 0.5000     band energies (ev):

     9.3998  10.3344  10.3684  10.9521  12.2418  12.4048  12.8516  12.9325
    14.9529  14.9790  15.7748  17.0733  26.1350  26.3881  26.9865  27.2120
    35.3073  35.8055  39.6253  39.7018

     occupation numbers 
     1.0000   1.0000   1.0000   1.0000   1.0000   1.0000   0.9996   0.9987
     0.0000   0.0000   0.0000   0.0000   0.0000   0.0000   0.0000   0.0000
     0.0000   0.0000   0.0000   0.0000

          k =-0.2000 0.7000-0.4000     band energies (ev):

     9.6677  10.3765  10.8465  11.2903  12.3013  12.4609  12.6568  13.0674
    15.1993  15.8098  17.3489  18.8774  22.2003  23.3691  25.3287  26.1477
    34.7136  35.1923  40.5019  40.6233

     occupation numbers 
     1.0000   1.0000   1.0000   1.0000   1.0000   1.0000   1.0000   0.9928
     0.0000   0.0000   0.0000   0.0000   0.0000   0.0000   0.0000   0.0000
     0.0000   0.0000   0.0000   0.0000

          k =-0.3000 0.3000 0.1000     band energies (ev):

     8.1950   8.6165  10.5552  11.0314  12.3427  12.5454  12.6991  12.9266
    13.1988  15.2705  15.5714  15.6609  27.6372  28.4454  33.0593  33.2585
    34.4310  35.2632  41.0042  41.1040

     occupation numbers 
     1.0000   1.0000   1.0000   1.0000   1.0000   1.0000   1.0000   0.9988
     0.9713   0.0000   0.0000   0.0000   0.0000   0.0000   0.0000   0.0000
     0.0000   0.0000   0.0000   0.0000

          k =-0.3000 0.2000 0.2000     band energies (ev):

     8.0536   8.3506  10.6412  10.6730  12.3079  12.5473  12.7666  12.7821
    13.2473  15.2716  15.5553  15.6718  30.3674  30.7199  30.9073  31.3737
    33.8280  34.5051  41.7359  42.0188

     occupation numbers 
     1.0000   1.0000   1.0000   1.0000   1.0000   1.0000   0.9999   0.9999
     0.9553   0.0000   0.0000   0.0000   0.0000   0.0000   0.0000   0.0000
     0.0000   0.0000   0.0000   0.0000

          k =-0.3000 0.7000-0.3000     band energies (ev):

    10.1358  10.3466  10.3749  12.0234  12.1633  12.1782  12.7840  12.8150
    15.5106  15.5457  20.4557  20.4846  21.6378  21.6450  22.8963  23.9526
    34.9600  35.5131  41.7467  41.7533

     occupation numbers 
     1.0000   1.0000   1.0000   1.0000   1.0000   1.0000   0.9999   0.9998
     0.0000   0.0000   0.0000   0.0000   0.0000   0.0000   0.0000   0.0000
     0.0000   0.0000   0.0000   0.0000

          k =-0.4000 0.4000 0.1000     band energies (ev):

     8.8691  10.0488  10.3248  12.0015  12.3766  12.5171  12.6177  13.1309
    14.3029  15.3743  15.7532  16.5219  23.2531  24.4151  31.6962  31.8634
    32.6304  33.3933  41.1915  41.2452

     occupation numbers 
     1.0000   1.0000   1.0000   1.0000   1.0000   1.0000   1.0000   0.9855
     0.0036   0.0000   0.0000   0.0000   0.0000   0.0000   0.0000   0.0000
     0.0000   0.0000   0.0000   0.0000

          k =-0.4000 0.3000 0.2000     band energies (ev):

     9.1599   9.9497  10.3765  10.8426  12.3663  12.4461  12.5982  12.6601
    14.6181  15.3445  15.7492  16.7809  25.7129  26.5966  28.8807  29.5075
    32.0848  32.6679  42.5334  42.6699

     occupation numbers 
     1.0000   1.0000   1.0000   1.0000   1.0000   1.0000   1.0000   1.0000
     0.0000   0.0000   0.0000   0.0000   0.0000   0.0000   0.0000   0.0000
     0.0000   0.0000   0.0000   0.0000

          k = 0.5000-0.5000 0.1000     band energies (ev):

     8.9252  10.2400  10.4752  12.2865  12.5195  12.6401  12.7723  13.6230
    15.2169  15.4209  15.7936  17.0296  21.0494  22.5531  31.2183  31.3668
    31.9531  32.6776  41.2087  41.3142

     occupation numbers 
     1.0000   1.0000   1.0000   1.0000   1.0000   1.0000   0.9999   0.5542
     0.0000   0.0000   0.0000   0.0000   0.0000   0.0000   0.0000   0.0000
     0.0000   0.0000   0.0000   0.0000

          k = 0.5000-0.6000 0.2000     band energies (ev):

     9.3325  10.2530  10.8441  11.5335  12.2444  12.5307  12.7504  12.8648
    15.4536  15.8062  16.4194  18.0569  21.9131  23.1785  27.9387  28.5589
    31.1559  31.6948  42.8697  42.8946

     occupation numbers 
     1.0000   1.0000   1.0000   1.0000   1.0000   1.0000   0.9999   0.9995
     0.0000   0.0000   0.0000   0.0000   0.0000   0.0000   0.0000   0.0000
     0.0000   0.0000   0.0000   0.0000

          k = 0.5000-0.7000 0.3000     band energies (ev):

     9.7544  10.2815  10.8192  11.1595  12.1488  12.4253  12.5399  12.7413
    15.4565  15.7817  16.8158  18.5189  24.1344  24.6967  25.0432  25.5902
    31.0673  31.6350  43.7712  43.8961

     occupation numbers 
     1.0000   1.0000   1.0000   1.0000   1.0000   1.0000   1.0000   0.9999
     0.0000   0.0000   0.0000   0.0000   0.0000   0.0000   0.0000   0.0000
     0.0000   0.0000   0.0000   0.0000

          k = 0.4000-0.6000 0.3000     band energies (ev):

     9.8167  10.3218  10.8794  11.5423  12.1562  12.4193  12.6103  12.7524
    15.5619  15.7474  19.0030  20.2495  21.3406  22.5572  24.0529  24.9445
    30.7352  31.3108  44.4569  44.5432

     occupation numbers 
     1.0000   1.0000   1.0000   1.0000   1.0000   1.0000   1.0000   0.9999
     0.0000   0.0000   0.0000   0.0000   0.0000   0.0000   0.0000   0.0000
     0.0000   0.0000   0.0000   0.0000

          k = 0.0000 0.0000 0.3000     band energies (ev):

     6.7909   6.9852  11.2930  11.3527  11.6496  11.7750  12.7378  13.5370
    13.5893  14.0658  14.5543  15.8627  35.2758  35.3169  36.3300  36.4541
    36.5331  36.8909  36.9826  37.0781

     occupation numbers 
     1.0000   1.0000   1.0000   1.0000   1.0000   1.0000   0.9999   0.6893
     0.6088   0.0441   0.0001   0.0000   0.0000   0.0000   0.0000   0.0000
     0.0000   0.0000   0.0000   0.0000

          k = 0.0000-0.1000 0.4000     band energies (ev):

     8.0199   8.3447  11.0097  11.1803  11.7471  12.3454  13.0026  13.3405
    13.3877  14.3063  14.7472  16.0295  30.7398  31.4000  33.8304  34.1391
    34.4497  34.5231  37.4477  37.8803

     occupation numbers 
     1.0000   1.0000   1.0000   1.0000   1.0000   1.0000   0.9967   0.9051
     0.8675   0.0034   0.0000   0.0000   0.0000   0.0000   0.0000   0.0000
     0.0000   0.0000   0.0000   0.0000

          k = 0.0000-0.2000 0.5000     band energies (ev):

     9.0311   9.8952  10.7343  10.9501  12.1102  12.8147  13.0928  13.1786
    13.8808  14.6569  15.6639  16.3781  25.7900  26.7240  31.6576  32.3602
    32.8027  33.1275  39.3803  39.7276

     occupation numbers 
     1.0000   1.0000   1.0000   1.0000   1.0000   0.9998   0.9904   0.9764
     0.1748   0.0000   0.0000   0.0000   0.0000   0.0000   0.0000   0.0000
     0.0000   0.0000   0.0000   0.0000

          k = 0.0000-0.3000 0.6000     band energies (ev):

     9.2264  10.7983  10.8154  10.9155  12.1789  12.7002  12.9306  13.7507
    14.8270  15.7900  16.3365  17.3882  21.9009  23.1981  30.3618  31.0231
    32.0811  32.4057  41.8679  42.0780

     occupation numbers 
     1.0000   1.0000   1.0000   1.0000   1.0000   1.0000   0.9987   0.3466
     0.0000   0.0000   0.0000   0.0000   0.0000   0.0000   0.0000   0.0000
     0.0000   0.0000   0.0000   0.0000

          k =-0.1000-0.1000 0.5000     band energies (ev):

     9.0414   9.7272  10.5122  11.2971  11.8912  12.8180  12.8454  13.4420
    13.8813  14.3442  15.3698  16.4186  28.7089  28.8159  29.4647  29.5619
    35.5529  35.7633  36.0428  36.1084

     occupation numbers 
     1.0000   1.0000   1.0000   1.0000   1.0000   0.9998   0.9996   0.8129
     0.1742   0.0021   0.0000   0.0000   0.0000   0.0000   0.0000   0.0000
     0.0000   0.0000   0.0000   0.0000

          k =-0.1000-0.2000 0.6000     band energies (ev):

     9.5453  10.2701  10.9376  11.1134  12.2098  12.3426  13.2283  13.3254
    14.7175  15.8637  15.9307  17.6919  24.1312  25.1285  27.3171  28.0653
    34.4212  34.8393  38.0258  38.3614

     occupation numbers 
     1.0000   1.0000   1.0000   1.0000   1.0000   1.0000   0.9623   0.9152
     0.0000   0.0000   0.0000   0.0000   0.0000   0.0000   0.0000   0.0000
     0.0000   0.0000   0.0000   0.0000

          k =-0.1000 0.7000-0.3000     band energies (ev):

     9.5328  10.4083  10.9445  11.3643  12.2477  12.3173  13.0628  13.5775
    14.8385  16.1523  17.8867  19.1505  21.3033  22.6091  26.7611  27.4880
    34.0013  34.4139  40.6148  40.6799

     occupation numbers 
     1.0000   1.0000   1.0000   1.0000   1.0000   1.0000   0.9932   0.6276
     0.0000   0.0000   0.0000   0.0000   0.0000   0.0000   0.0000   0.0000
     0.0000   0.0000   0.0000   0.0000

          k =-0.2000 0.8000-0.3000     band energies (ev):

     9.9384   9.9645  10.8662  11.7530  11.9856  12.6991  12.9175  13.2225
    15.2133  15.7802  18.8371  20.1348  22.5969  23.6181  23.6336  24.5627
    37.0335  37.3761  37.5387  37.5932

     occupation numbers 
     1.0000   1.0000   1.0000   1.0000   1.0000   1.0000   0.9989   0.9642
     0.0000   0.0000   0.0000   0.0000   0.0000   0.0000   0.0000   0.0000
     0.0000   0.0000   0.0000   0.0000

          k =-0.3000 0.3000 0.3000     band energies (ev):

     9.3040   9.8096  10.3692  10.3720  12.3625  12.3788  12.5250  12.5518
    14.6438  15.5718  15.6058  16.8210  28.4791  28.5325  28.9184  29.0852
    29.1187  29.8491  44.1483  44.5370

     occupation numbers 
     1.0000   1.0000   1.0000   1.0000   1.0000   1.0000   1.0000   1.0000
     0.0000   0.0000   0.0000   0.0000   0.0000   0.0000   0.0000   0.0000
     0.0000   0.0000   0.0000   0.0000

          k = 0.6000-0.6000 0.3000     band energies (ev):

     9.8291  10.2202  10.7369  11.0948  12.1473  12.2745  12.5757  12.6368
    15.6215  15.7647  16.6239  18.3754  24.1488  25.0760  27.3483  27.4604
    27.9468  28.2602  45.7870  46.0927

     occupation numbers 
     1.0000   1.0000   1.0000   1.0000   1.0000   1.0000   1.0000   1.0000
     0.0000   0.0000   0.0000   0.0000   0.0000   0.0000   0.0000   0.0000
     0.0000   0.0000   0.0000   0.0000

          k = 0.5000-0.5000 0.3000     band energies (ev):

     9.7623  10.1739  11.1687  11.3834  12.0737  12.5398  12.6073  12.6718
    15.6528  15.8189  18.4735  19.7378  21.4064  22.6772  26.9533  26.9799
    27.5521  27.7629  46.2158  46.4502

     occupation numbers 
     1.0000   1.0000   1.0000   1.0000   1.0000   1.0000   1.0000   1.0000
     0.0000   0.0000   0.0000   0.0000   0.0000   0.0000   0.0000   0.0000
     0.0000   0.0000   0.0000   0.0000

          k = 0.5000-0.6000 0.4000     band energies (ev):

    10.0543  10.3283  10.6582  11.7694  12.0521  12.1760  12.6344  12.6706
    15.7407  15.8070  19.3389  20.6143  22.8751  23.7068  23.8090  24.6404
    26.6672  27.3794  48.2998  48.5724

     occupation numbers 
     1.0000   1.0000   1.0000   1.0000   1.0000   1.0000   1.0000   1.0000
     0.0000   0.0000   0.0000   0.0000   0.0000   0.0000   0.0000   0.0000
     0.0000   0.0000   0.0000   0.0000

          k = 0.0000 0.0000 0.5000     band energies (ev):

     8.8884   9.4873  10.6441  11.6564  11.7195  12.4083  13.1933  13.6564
    13.8894  13.9284  14.8318  16.3576  30.9942  31.1502  31.7082  31.8608
    33.0153  33.1755  33.4019  33.7405

     occupation numbers 
     1.0000   1.0000   1.0000   1.0000   1.0000   1.0000   0.9728   0.4990
     0.1657   0.1285   0.0000   0.0000   0.0000   0.0000   0.0000   0.0000
     0.0000   0.0000   0.0000   0.0000

          k = 0.0000-0.1000 0.6000     band energies (ev):

     9.4430  10.1162  10.6491  11.7240  12.0504  12.4491  13.0639  13.9382
    14.3577  15.1899  15.5523  17.1430  26.6976  27.5110  28.8425  29.5261
    32.3122  32.8712  34.6023  35.1002

     occupation numbers 
     1.0000   1.0000   1.0000   1.0000   1.0000   1.0000   0.9931   0.1202
     0.0018   0.0000   0.0000   0.0000   0.0000   0.0000   0.0000   0.0000
     0.0000   0.0000   0.0000   0.0000

          k = 0.0000-0.2000 0.7000     band energies (ev):

     9.4964   9.9484  11.3536  11.6482  11.9661  12.2138  13.6589  13.8574
    14.5692  16.2368  17.7514  19.0162  22.5087  23.5724  27.5245  28.1479
    31.9048  32.5069  37.3050  37.6416

     occupation numbers 
     1.0000   1.0000   1.0000   1.0000   1.0000   1.0000   0.4948   0.2010
     0.0001   0.0000   0.0000   0.0000   0.0000   0.0000   0.0000   0.0000
     0.0000   0.0000   0.0000   0.0000

          k =-0.1000-0.1000 0.7000     band energies (ev):

     9.5630   9.6950  11.2918  11.7975  11.9185  12.5736  13.3765  13.9991
    14.9216  15.9050  17.5577  18.8884  24.9985  25.2701  25.8040  26.0254
    33.7263  34.0308  34.1883  34.6634

     occupation numbers 
     1.0000   1.0000   1.0000   1.0000   1.0000   1.0000   0.8772   0.0767
     0.0000   0.0000   0.0000   0.0000   0.0000   0.0000   0.0000   0.0000
     0.0000   0.0000   0.0000   0.0000

          k =-0.1000 0.8000-0.2000     band energies (ev):

     9.4949   9.6227  11.5805  11.6361  11.7514  12.8406  13.5310  13.9050
    15.2428  16.0743  20.1826  21.1420  21.8378  22.8472  24.5516  25.2837
    33.6045  34.1426  36.2989  36.5819

     occupation numbers 
     1.0000   1.0000   1.0000   1.0000   1.0000   0.9996   0.6981   0.1501
     0.0000   0.0000   0.0000   0.0000   0.0000   0.0000   0.0000   0.0000
     0.0000   0.0000   0.0000   0.0000

          k = 0.5000-0.5000 0.5000     band energies (ev):

    10.3566  10.3675  10.3785  12.0284  12.0355  12.0368  12.6633  12.6649
    15.8312  15.8317  22.4107  22.4450  22.4815  23.3628  23.3867  23.4089
    23.8390  24.7787  52.9230  52.9230

     occupation numbers 
     1.0000   1.0000   1.0000   1.0000   1.0000   1.0000   1.0000   1.0000
     0.0000   0.0000   0.0000   0.0000   0.0000   0.0000   0.0000   0.0000
     0.0000   0.0000   0.0000   0.0000

          k = 0.0000 0.0000 0.7000     band energies (ev):

     9.3987   9.6186  11.1007  11.9085  12.4785  12.5484  13.1099  14.7626
    14.8336  15.6188  17.0712  18.3919  26.4280  26.5952  27.0526  27.2150
    31.8382  32.0845  32.5008  32.8591

     occupation numbers 
     1.0000   1.0000   1.0000   1.0000   1.0000   1.0000   0.9884   0.0000
     0.0000   0.0000   0.0000   0.0000   0.0000   0.0000   0.0000   0.0000
     0.0000   0.0000   0.0000   0.0000

          k = 0.0000-0.1000 0.8000     band energies (ev):

     9.2668   9.3158  11.2824  11.4823  12.6745  12.8712  13.5789  15.0185
    15.2158  16.1423  19.7898  20.6679  23.4401  24.1410  25.1143  25.6424
    31.7422  32.4995  33.4668  34.1044

     occupation numbers 
     1.0000   1.0000   1.0000   1.0000   1.0000   0.9994   0.6254   0.0000
     0.0000   0.0000   0.0000   0.0000   0.0000   0.0000   0.0000   0.0000
     0.0000   0.0000   0.0000   0.0000

          k =-0.1000 0.9000-0.1000     band energies (ev):

     9.1545   9.1565  11.2736  11.2749  12.7787  13.4571  13.4865  15.1179
    15.9761  16.0033  22.3971  22.4782  23.0029  23.0983  23.1925  23.7804
    32.8978  32.9088  33.4865  33.4968

     occupation numbers 
     1.0000   1.0000   1.0000   1.0000   0.9999   0.7957   0.7593   0.0000
     0.0000   0.0000   0.0000   0.0000   0.0000   0.0000   0.0000   0.0000
     0.0000   0.0000   0.0000   0.0000

          k = 0.0000 0.0000 0.9000     band energies (ev):

     8.9971   9.0015  11.1040  11.1560  13.4103  13.4798  13.5559  15.9186
    15.9904  16.1218  21.9476  22.4472  23.5427  23.7048  23.9225  24.0842
    31.3689  31.8807  32.1774  32.6899

     occupation numbers 
     1.0000   1.0000   1.0000   1.0000   0.8463   0.7678   0.6610   0.0000
     0.0000   0.0000   0.0000   0.0000   0.0000   0.0000   0.0000   0.0000
     0.0000   0.0000   0.0000   0.0000

          k = 0.0000 0.1000 0.0000     band energies (ev):

     5.2844   5.4482  11.2489  11.2597  11.3289  12.3511  12.4780  13.5429
    13.5475  13.6303  15.4102  15.5732  38.3216  38.6093  39.2543  39.2544
    39.5819  39.5820  42.1061  42.6718

     occupation numbers 
     1.0000   1.0000   1.0000   1.0000   1.0000   1.0000   1.0000   0.6806
     0.6737   0.5423   0.0000   0.0000   0.0000   0.0000   0.0000   0.0000
     0.0000   0.0000   0.0000   0.0000

          k =-0.1000 0.2000 0.0000     band energies (ev):

     6.0615   6.2338  11.0882  11.2261  11.7086  12.1611  12.5395  13.3397
    13.4782  14.0465  15.1394  15.6448  35.2690  35.5088  37.5674  37.6192
    38.9606  39.0652  41.5474  41.8096

     occupation numbers 
     1.0000   1.0000   1.0000   1.0000   1.0000   1.0000   1.0000   0.9056
     0.7698   0.0521   0.0000   0.0000   0.0000   0.0000   0.0000   0.0000
     0.0000   0.0000   0.0000   0.0000

          k = 0.2000 0.0000-0.1000     band energies (ev):

     6.0615   6.2338  11.0879  11.2265  11.7079  12.1627  12.5384  13.3369
    13.4822  14.0452  15.1399  15.6446  35.2690  35.5087  37.5670  37.6195
    38.9607  39.0651  41.5464  41.8223

     occupation numbers 
     1.0000   1.0000   1.0000   1.0000   1.0000   1.0000   1.0000   0.9076
     0.7648   0.0527   0.0000   0.0000   0.0000   0.0000   0.0000   0.0000
     0.0000   0.0000   0.0000   0.0000

          k =-0.2000 0.3000 0.0000     band energies (ev):

     7.4134   7.6736  10.7942  11.1084  12.1657  12.4239  12.6126  12.9846
    13.2257  14.8370  15.0338  15.7187  30.1128  30.7848  35.1136  35.2216
    36.7964  37.5170  40.9574  41.1382

     occupation numbers 
     1.0000   1.0000   1.0000   1.0000   1.0000   1.0000   1.0000   0.9974
     0.9631   0.0000   0.0000   0.0000   0.0000   0.0000   0.0000   0.0000
     0.0000   0.0000   0.0000   0.0000

          k = 0.3000 0.0000-0.2000     band energies (ev):

     7.4135   7.6736  10.7940  11.1084  12.1688  12.4189  12.6150  12.9815
    13.2286  14.8349  15.0359  15.7183  30.1126  30.7848  35.1131  35.2220
    36.7968  37.5170  40.9575  41.1381

     occupation numbers 
     1.0000   1.0000   1.0000   1.0000   1.0000   1.0000   1.0000   0.9975
     0.9621   0.0000   0.0000   0.0000   0.0000   0.0000   0.0000   0.0000
     0.0000   0.0000   0.0000   0.0000

          k =-0.3000 0.4000 0.0000     band energies (ev):

     8.5745   9.3426  10.5107  11.4940  12.3907  12.6478  12.8399  13.0653
    13.2511  15.1782  15.7487  15.8210  25.2670  26.2581  33.2356  33.3252
    34.3878  35.1552  40.8116  40.9987

     occupation numbers 
     1.0000   1.0000   1.0000   1.0000   1.0000   1.0000   0.9997   0.9930
     0.9538   0.0000   0.0000   0.0000   0.0000   0.0000   0.0000   0.0000
     0.0000   0.0000   0.0000   0.0000

          k = 0.4000 0.0000-0.3000     band energies (ev):

     8.5746   9.3426  10.5106  11.4939  12.4010  12.6404  12.8246  13.0782
    13.2506  15.1806  15.7358  15.8315  25.2667  26.2581  33.2348  33.3259
    34.3881  35.1552  40.8117  40.9986

     occupation numbers 
     1.0000   1.0000   1.0000   1.0000   1.0000   1.0000   0.9997   0.9918
     0.9540   0.0000   0.0000   0.0000   0.0000   0.0000   0.0000   0.0000
     0.0000   0.0000   0.0000   0.0000

          k =-0.4000 0.5000 0.0000     band energies (ev):

     8.8436  10.3077  10.3410  12.1301  12.4007  12.5047  13.5470  13.8043
    14.0150  15.3009  16.0383  16.3969  21.6616  23.0646  32.2333  32.2934
    32.9367  33.6441  40.7918  41.0370

     occupation numbers 
     1.0000   1.0000   1.0000   1.0000   1.0000   1.0000   0.6745   0.2685
     0.0677   0.0000   0.0000   0.0000   0.0000   0.0000   0.0000   0.0000
     0.0000   0.0000   0.0000   0.0000

          k = 0.5000 0.0000-0.4000     band energies (ev):

     8.8437  10.3078  10.3408  12.1331  12.4164  12.4847  13.5470  13.8039
    14.0168  15.3027  16.0341  16.3991  21.6613  23.0646  32.2319  32.2947
    32.9370  33.6440  40.7919  41.0369

     occupation numbers 
     1.0000   1.0000   1.0000   1.0000   1.0000   1.0000   0.6746   0.2690
     0.0667   0.0000   0.0000   0.0000   0.0000   0.0000   0.0000   0.0000
     0.0000   0.0000   0.0000   0.0000

          k =-0.1000 0.3000-0.1000     band energies (ev):

     7.1234   7.3397  11.0147  11.0217  11.9853  12.2437  12.6808  13.2119
    13.2516  14.6131  14.8416  15.7879  32.8244  33.2211  33.3201  33.8785
    38.4122  39.0472  39.1105  39.1246

     occupation numbers 
     1.0000   1.0000   1.0000   1.0000   1.0000   1.0000   1.0000   0.9675
     0.9536   0.0000   0.0000   0.0000   0.0000   0.0000   0.0000   0.0000
     0.0000   0.0000   0.0000   0.0000

          k =-0.2000 0.4000-0.1000     band energies (ev):

     8.4565   8.9241  10.6763  10.9563  12.1151  12.7458  12.8347  12.9912
    13.2944  14.8677  15.4839  15.9723  27.9296  28.7204  31.0885  31.6555
    35.8813  36.3768  39.7292  39.9107

     occupation numbers 
     1.0000   1.0000   1.0000   1.0000   1.0000   0.9999   0.9997   0.9971
     0.9335   0.0000   0.0000   0.0000   0.0000   0.0000   0.0000   0.0000
     0.0000   0.0000   0.0000   0.0000

          k = 0.4000-0.1000-0.2000     band energies (ev):

     8.4565   8.9242  10.6762  10.9563  12.1167  12.7464  12.8279  12.9950
    13.2952  14.8686  15.4826  15.9728  27.9294  28.7204  31.0886  31.6556
    35.8814  36.3768  39.7293  39.9107

     occupation numbers 
     1.0000   1.0000   1.0000   1.0000   1.0000   0.9999   0.9997   0.9970
     0.9331   0.0000   0.0000   0.0000   0.0000   0.0000   0.0000   0.0000
     0.0000   0.0000   0.0000   0.0000

          k =-0.3000 0.5000-0.1000     band energies (ev):

     9.0924  10.3200  10.5000  11.2546  12.3355  12.5849  12.9074  13.1382
    14.7105  15.0977  15.8991  16.8115  23.4641  24.5841  29.6728  30.2521
    34.1534  34.5578  40.4759  40.7386

     occupation numbers 
     1.0000   1.0000   1.0000   1.0000   1.0000   1.0000   0.9991   0.9843
     0.0000   0.0000   0.0000   0.0000   0.0000   0.0000   0.0000   0.0000
     0.0000   0.0000   0.0000   0.0000

          k = 0.5000-0.1000-0.3000     band energies (ev):

     9.0925  10.3199  10.4999  11.2546  12.3413  12.5787  12.9057  13.1397
    14.7109  15.0996  15.8970  16.8120  23.4638  24.5841  29.6729  30.2522
    34.1534  34.5578  40.4760  40.7386

     occupation numbers 
     1.0000   1.0000   1.0000   1.0000   1.0000   1.0000   0.9991   0.9841
     0.0000   0.0000   0.0000   0.0000   0.0000   0.0000   0.0000   0.0000
     0.0000   0.0000   0.0000   0.0000

          k = 0.6000-0.4000-0.1000     band energies (ev):

     9.1334  10.4420  10.7464  11.4891  12.3574  12.5365  13.0797  13.4434
    15.1746  16.0002  16.0848  17.5703  21.0955  22.5539  29.1409  29.7137
    33.5523  33.9186  40.7786  41.0887

     occupation numbers 
     1.0000   1.0000   1.0000   1.0000   1.0000   1.0000   0.9917   0.8114
     0.0000   0.0000   0.0000   0.0000   0.0000   0.0000   0.0000   0.0000
     0.0000   0.0000   0.0000   0.0000

          k = 0.2000 0.1000-0.2000     band energies (ev):

     6.7850   6.9802  10.8628  10.9970  12.2526  12.3125  12.4624  13.0682
    13.1990  14.6394  15.2740  15.5459  32.7143  33.1800  35.0870  35.2662
    36.9350  37.8523  40.4952  40.7978

     occupation numbers 
     1.0000   1.0000   1.0000   1.0000   1.0000   1.0000   1.0000   0.9927
     0.9712   0.0000   0.0000   0.0000   0.0000   0.0000   0.0000   0.0000
     0.0000   0.0000   0.0000   0.0000

          k =-0.2000 0.5000-0.2000     band energies (ev):

     9.3997  10.3355  10.3678  10.9517  12.2407  12.4016  12.8641  12.9242
    14.9522  14.9805  15.7737  17.0738  26.1365  26.3853  26.9892  27.2105
    35.3074  35.8055  39.6252  39.7017

     occupation numbers 
     1.0000   1.0000   1.0000   1.0000   1.0000   1.0000   0.9995   0.9988
     0.0000   0.0000   0.0000   0.0000   0.0000   0.0000   0.0000   0.0000
     0.0000   0.0000   0.0000   0.0000

          k = 0.7000-0.4000-0.2000     band energies (ev):

     9.6675  10.3770  10.8464  11.2898  12.3009  12.4572  12.6617  13.0670
    15.1987  15.8102  17.3489  18.8776  22.2005  23.3690  25.3286  26.1477
    34.7136  35.1922  40.5017  40.6233

     occupation numbers 
     1.0000   1.0000   1.0000   1.0000   1.0000   1.0000   1.0000   0.9928
     0.0000   0.0000   0.0000   0.0000   0.0000   0.0000   0.0000   0.0000
     0.0000   0.0000   0.0000   0.0000

          k =-0.4000-0.2000 0.7000     band energies (ev):

     9.6676  10.3769  10.8460  11.2904  12.3030  12.4562  12.6593  13.0679
    15.1991  15.8101  17.3489  18.8776  22.2002  23.3690  25.3288  26.1477
    34.7136  35.1922  40.5019  40.6233

     occupation numbers 
     1.0000   1.0000   1.0000   1.0000   1.0000   1.0000   1.0000   0.9927
     0.0000   0.0000   0.0000   0.0000   0.0000   0.0000   0.0000   0.0000
     0.0000   0.0000   0.0000   0.0000

          k = 0.3000 0.1000-0.3000     band energies (ev):

     8.1950   8.6165  10.5550  11.0314  12.3539  12.5335  12.6920  12.9360
    13.1971  15.2713  15.5716  15.6600  27.6370  28.4454  33.0588  33.2589
    34.4312  35.2632  41.0041  41.1040

     occupation numbers 
     1.0000   1.0000   1.0000   1.0000   1.0000   1.0000   1.0000   0.9986
     0.9718   0.0000   0.0000   0.0000   0.0000   0.0000   0.0000   0.0000
     0.0000   0.0000   0.0000   0.0000

          k = 0.2000 0.2000-0.3000     band energies (ev):

     8.0537   8.3506  10.6409  10.6732  12.3139  12.5379  12.7701  12.7824
    13.2470  15.2705  15.5616  15.6667  30.3685  30.7149  30.9120  31.3727
    33.8281  34.5051  41.7359  42.0189

     occupation numbers 
     1.0000   1.0000   1.0000   1.0000   1.0000   1.0000   0.9999   0.9999
     0.9554   0.0000   0.0000   0.0000   0.0000   0.0000   0.0000   0.0000
     0.0000   0.0000   0.0000   0.0000

          k = 0.4000 0.1000-0.4000     band energies (ev):

     8.8692  10.0488  10.3247  12.0011  12.3919  12.5124  12.6049  13.1327
    14.3035  15.3775  15.7497  16.5224  23.2528  24.4151  31.6951  31.8644
    32.6305  33.3933  41.1915  41.2452

     occupation numbers 
     1.0000   1.0000   1.0000   1.0000   1.0000   1.0000   1.0000   0.9852
     0.0035   0.0000   0.0000   0.0000   0.0000   0.0000   0.0000   0.0000
     0.0000   0.0000   0.0000   0.0000

          k = 0.3000 0.2000-0.4000     band energies (ev):

     9.1599   9.9496  10.3763  10.8427  12.3820  12.4395  12.5792  12.6696
    14.6182  15.3458  15.7482  16.7808  25.7127  26.5966  28.8807  29.5076
    32.0848  32.6680  42.5334  42.6700

     occupation numbers 
     1.0000   1.0000   1.0000   1.0000   1.0000   1.0000   1.0000   1.0000
     0.0000   0.0000   0.0000   0.0000   0.0000   0.0000   0.0000   0.0000
     0.0000   0.0000   0.0000   0.0000

          k = 0.2000-0.4000 0.3000     band energies (ev):

     9.1599   9.9497  10.3765  10.8425  12.3818  12.4328  12.5882  12.6676
    14.6184  15.3457  15.7479  16.7810  25.7127  26.5966  28.8808  29.5077
    32.0848  32.6679  42.5334  42.6699

     occupation numbers 
     1.0000   1.0000   1.0000   1.0000   1.0000   1.0000   1.0000   1.0000
     0.0000   0.0000   0.0000   0.0000   0.0000   0.0000   0.0000   0.0000
     0.0000   0.0000   0.0000   0.0000

          k =-0.5000 0.1000 0.5000     band energies (ev):

     8.9252  10.2401  10.4751  12.2939  12.5201  12.6276  12.7763  13.6227
    15.2187  15.4236  15.7893  17.0300  21.0491  22.5531  31.2169  31.3683
    31.9530  32.6776  41.2087  41.3142

     occupation numbers 
     1.0000   1.0000   1.0000   1.0000   1.0000   1.0000   0.9999   0.5547
     0.0000   0.0000   0.0000   0.0000   0.0000   0.0000   0.0000   0.0000
     0.0000   0.0000   0.0000   0.0000

          k =-0.6000 0.2000 0.5000     band energies (ev):

     9.3325  10.2530  10.8438  11.5335  12.2490  12.5300  12.7481  12.8629
    15.4566  15.8037  16.4194  18.0569  21.9129  23.1784  27.9387  28.5590
    31.1559  31.6948  42.8697  42.8946

     occupation numbers 
     1.0000   1.0000   1.0000   1.0000   1.0000   1.0000   0.9999   0.9995
     0.0000   0.0000   0.0000   0.0000   0.0000   0.0000   0.0000   0.0000
     0.0000   0.0000   0.0000   0.0000

          k = 0.2000 0.5000-0.6000     band energies (ev):

     9.3325  10.2531  10.8439  11.5334  12.2497  12.5279  12.7472  12.8653
    15.4561  15.8045  16.4191  18.0570  21.9128  23.1784  27.9388  28.5590
    31.1559  31.6948  42.8697  42.8946

     occupation numbers 
     1.0000   1.0000   1.0000   1.0000   1.0000   1.0000   0.9999   0.9995
     0.0000   0.0000   0.0000   0.0000   0.0000   0.0000   0.0000   0.0000
     0.0000   0.0000   0.0000   0.0000

          k =-0.7000 0.3000 0.5000     band energies (ev):

     9.7544  10.2812  10.8194  11.1593  12.1479  12.4424  12.5248  12.7400
    15.4583  15.7800  16.8159  18.5188  24.1345  24.6965  25.0434  25.5901
    31.0673  31.6350  43.7712  43.8962

     occupation numbers 
     1.0000   1.0000   1.0000   1.0000   1.0000   1.0000   1.0000   0.9999
     0.0000   0.0000   0.0000   0.0000   0.0000   0.0000   0.0000   0.0000
     0.0000   0.0000   0.0000   0.0000

          k =-0.6000 0.3000 0.4000     band energies (ev):

     9.8167  10.3218  10.8793  11.5420  12.1583  12.4198  12.6100  12.7503
    15.5638  15.7458  19.0030  20.2494  21.3405  22.5572  24.0530  24.9446
    30.7351  31.3108  44.4569  44.5434

     occupation numbers 
     1.0000   1.0000   1.0000   1.0000   1.0000   1.0000   1.0000   0.9999
     0.0000   0.0000   0.0000   0.0000   0.0000   0.0000   0.0000   0.0000
     0.0000   0.0000   0.0000   0.0000

          k = 0.0000 0.3000 0.0000     band energies (ev):

     6.7908   6.9852  11.3199  11.3206  11.6985  11.7272  12.7441  13.5579
    13.5615  14.0751  14.5491  15.8635  35.2756  35.3168  36.3717  36.3851
    36.5601  36.9249  36.9405  37.0868

     occupation numbers 
     1.0000   1.0000   1.0000   1.0000   1.0000   1.0000   0.9999   0.6580
     0.6525   0.0406   0.0001   0.0000   0.0000   0.0000   0.0000   0.0000
     0.0000   0.0000   0.0000   0.0000

          k =-0.1000 0.4000 0.0000     band energies (ev):

     8.0197   8.3447  11.0103  11.1812  11.7448  12.3415  13.0118  13.3363
    13.3882  14.3071  14.7450  16.0303  30.7400  31.3998  33.8304  34.1390
    34.4497  34.5230  37.4479  37.8802

     occupation numbers 
     1.0000   1.0000   1.0000   1.0000   1.0000   1.0000   0.9963   0.9080
     0.8670   0.0034   0.0000   0.0000   0.0000   0.0000   0.0000   0.0000
     0.0000   0.0000   0.0000   0.0000

          k = 0.4000 0.0000-0.1000     band energies (ev):

     8.0197   8.3447  11.0102  11.1811  11.7458  12.3405  13.0117  13.3413
    13.3832  14.3085  14.7440  16.0304  30.7398  31.3998  33.8292  34.1431
    34.4418  34.5282  37.4478  37.8802

     occupation numbers 
     1.0000   1.0000   1.0000   1.0000   1.0000   1.0000   0.9963   0.9045
     0.8715   0.0033   0.0000   0.0000   0.0000   0.0000   0.0000   0.0000
     0.0000   0.0000   0.0000   0.0000

          k =-0.2000 0.5000 0.0000     band energies (ev):

     9.0309   9.8953  10.7361  10.9482  12.1088  12.8099  13.1056  13.1719
    13.8829  14.6545  15.6637  16.3790  25.7902  26.7240  31.6575  32.3599
    32.8033  33.1273  39.3804  39.7276

     occupation numbers 
     1.0000   1.0000   1.0000   1.0000   1.0000   0.9998   0.9889   0.9779
     0.1726   0.0000   0.0000   0.0000   0.0000   0.0000   0.0000   0.0000
     0.0000   0.0000   0.0000   0.0000

          k = 0.5000 0.0000-0.2000     band energies (ev):

     9.0310   9.8953  10.7359  10.9480  12.1108  12.8106  13.0939  13.1802
    13.8830  14.6573  15.6611  16.3798  25.7899  26.7239  31.6576  32.3606
    32.8025  33.1276  39.3803  39.7276

     occupation numbers 
     1.0000   1.0000   1.0000   1.0000   1.0000   0.9998   0.9903   0.9760
     0.1724   0.0000   0.0000   0.0000   0.0000   0.0000   0.0000   0.0000
     0.0000   0.0000   0.0000   0.0000

          k =-0.3000 0.6000 0.0000     band energies (ev):

     9.2262  10.7997  10.8205  10.9086  12.1787  12.6989  12.9337  13.7496
    14.8270  15.7900  16.3366  17.3885  21.9012  23.1980  30.3616  31.0230
    32.0813  32.4056  41.8680  42.0780

     occupation numbers 
     1.0000   1.0000   1.0000   1.0000   1.0000   1.0000   0.9987   0.3482
     0.0000   0.0000   0.0000   0.0000   0.0000   0.0000   0.0000   0.0000
     0.0000   0.0000   0.0000   0.0000

          k = 0.6000 0.0000-0.3000     band energies (ev):

     9.2264  10.8013  10.8152  10.9123  12.1797  12.6998  12.9300  13.7511
    14.8270  15.7918  16.3344  17.3889  21.9008  23.1980  30.3618  31.0231
    32.0811  32.4057  41.8679  42.0780

     occupation numbers 
     1.0000   1.0000   1.0000   1.0000   1.0000   1.0000   0.9987   0.3460
     0.0000   0.0000   0.0000   0.0000   0.0000   0.0000   0.0000   0.0000
     0.0000   0.0000   0.0000   0.0000

          k =-0.1000 0.5000-0.1000     band energies (ev):

     9.0412   9.7272  10.5125  11.2973  11.8900  12.7863  12.8774  13.4430
    13.8834  14.3420  15.3686  16.4195  28.7255  28.7951  29.4851  29.5456
    35.5547  35.7586  36.0551  36.0990

     occupation numbers 
     1.0000   1.0000   1.0000   1.0000   1.0000   0.9998   0.9994   0.8119
     0.1720   0.0022   0.0000   0.0000   0.0000   0.0000   0.0000   0.0000
     0.0000   0.0000   0.0000   0.0000

          k =-0.2000 0.6000-0.1000     band energies (ev):

     9.5450  10.2708  10.9378  11.1127  12.2123  12.3379  13.2387  13.3174
    14.7173  15.8669  15.9275  17.6924  24.1314  25.1283  27.3171  28.0652
    34.4212  34.8393  38.0259  38.3614

     occupation numbers 
     1.0000   1.0000   1.0000   1.0000   1.0000   1.0000   0.9585   0.9203
     0.0000   0.0000   0.0000   0.0000   0.0000   0.0000   0.0000   0.0000
     0.0000   0.0000   0.0000   0.0000

          k = 0.6000-0.1000-0.2000     band energies (ev):

     9.5452  10.2704  10.9382  11.1123  12.2112  12.3403  13.2301  13.3245
    14.7174  15.8818  15.9126  17.6925  24.1311  25.1283  27.3174  28.0652
    34.4213  34.8393  38.0258  38.3613

     occupation numbers 
     1.0000   1.0000   1.0000   1.0000   1.0000   1.0000   0.9616   0.9158
     0.0000   0.0000   0.0000   0.0000   0.0000   0.0000   0.0000   0.0000
     0.0000   0.0000   0.0000   0.0000

          k = 0.7000-0.3000-0.1000     band energies (ev):

     9.5325  10.4090  10.9442  11.3637  12.2626  12.3006  13.0667  13.5758
    14.8381  16.1524  17.8868  19.1507  21.3036  22.6090  26.7609  27.4880
    34.0012  34.4139  40.6148  40.6802

     occupation numbers 
     1.0000   1.0000   1.0000   1.0000   1.0000   1.0000   0.9928   0.6303
     0.0000   0.0000   0.0000   0.0000   0.0000   0.0000   0.0000   0.0000
     0.0000   0.0000   0.0000   0.0000

          k = 0.8000-0.3000-0.2000     band energies (ev):

     9.9352   9.9678  10.8661  11.7531  11.9854  12.6963  12.9215  13.2213
    15.2132  15.7803  18.8372  20.1350  22.5973  23.5950  23.6564  24.5624
    37.0342  37.3717  37.5526  37.5830

     occupation numbers 
     1.0000   1.0000   1.0000   1.0000   1.0000   1.0000   0.9989   0.9646
     0.0000   0.0000   0.0000   0.0000   0.0000   0.0000   0.0000   0.0000
     0.0000   0.0000   0.0000   0.0000

          k =-0.6000 0.3000 0.6000     band energies (ev):

     9.8290  10.2202  10.7370  11.0944  12.1507  12.2730  12.5819  12.6288
    15.6251  15.7614  16.6239  18.3754  24.1487  25.0759  27.3417  27.4697
    27.9426  28.2618  45.7870  46.0928

     occupation numbers 
     1.0000   1.0000   1.0000   1.0000   1.0000   1.0000   1.0000   1.0000
     0.0000   0.0000   0.0000   0.0000   0.0000   0.0000   0.0000   0.0000
     0.0000   0.0000   0.0000   0.0000

          k =-0.5000 0.3000 0.5000     band energies (ev):

     9.7622  10.1740  11.1690  11.3821  12.0765  12.5431  12.6214  12.6522
    15.6571  15.8151  18.4735  19.7378  21.4063  22.6772  26.9335  27.0026
    27.5464  27.7659  46.2157  46.4502

     occupation numbers 
     1.0000   1.0000   1.0000   1.0000   1.0000   1.0000   1.0000   1.0000
     0.0000   0.0000   0.0000   0.0000   0.0000   0.0000   0.0000   0.0000
     0.0000   0.0000   0.0000   0.0000

          k =-0.6000 0.4000 0.5000     band energies (ev):

    10.0543  10.3282  10.6582  11.7688  12.0508  12.1794  12.6399  12.6635
    15.7440  15.8038  19.3389  20.6143  22.8753  23.7045  23.8112  24.6403
    26.6672  27.3794  48.2998  48.5725

     occupation numbers 
     1.0000   1.0000   1.0000   1.0000   1.0000   1.0000   1.0000   1.0000
     0.0000   0.0000   0.0000   0.0000   0.0000   0.0000   0.0000   0.0000
     0.0000   0.0000   0.0000   0.0000

          k = 0.0000 0.5000 0.0000     band energies (ev):

     8.8882   9.4873  10.6443  11.6865  11.6889  12.4032  13.1974  13.6718
    13.8967  13.9068  14.8315  16.3584  31.0637  31.0637  31.7929  31.7931
    33.0150  33.1756  33.4017  33.7406

     occupation numbers 
     1.0000   1.0000   1.0000   1.0000   1.0000   1.0000   0.9717   0.4734
     0.1582   0.1484   0.0000   0.0000   0.0000   0.0000   0.0000   0.0000
     0.0000   0.0000   0.0000   0.0000

          k =-0.1000 0.6000 0.0000     band energies (ev):

     9.4428  10.1163  10.6492  11.7254  12.0493  12.4443  13.0680  13.9402
    14.3564  15.1890  15.5525  17.1436  26.6982  27.5099  28.8434  29.5256
    32.3121  32.8711  34.6024  35.1002

     occupation numbers 
     1.0000   1.0000   1.0000   1.0000   1.0000   1.0000   0.9927   0.1185
     0.0018   0.0000   0.0000   0.0000   0.0000   0.0000   0.0000   0.0000
     0.0000   0.0000   0.0000   0.0000

          k = 0.6000 0.0000-0.1000     band energies (ev):

     9.4429  10.1161  10.6493  11.7244  12.0499  12.4459  13.0664  13.9400
    14.3562  15.1923  15.5498  17.1438  26.6979  27.5099  28.8437  29.5256
    32.3122  32.8712  34.6023  35.1001

     occupation numbers 
     1.0000   1.0000   1.0000   1.0000   1.0000   1.0000   0.9929   0.1186
     0.0018   0.0000   0.0000   0.0000   0.0000   0.0000   0.0000   0.0000
     0.0000   0.0000   0.0000   0.0000

          k =-0.2000 0.7000 0.0000     band energies (ev):

     9.4960   9.9487  11.3534  11.6478  11.9704  12.2083  13.6642  13.8546
    14.5679  16.2370  17.7516  19.0166  22.5089  23.5722  27.5244  28.1478
    31.9047  32.5068  37.3051  37.6417

     occupation numbers 
     1.0000   1.0000   1.0000   1.0000   1.0000   1.0000   0.4860   0.2043
     0.0001   0.0000   0.0000   0.0000   0.0000   0.0000   0.0000   0.0000
     0.0000   0.0000   0.0000   0.0000

          k = 0.7000 0.0000-0.2000     band energies (ev):

     9.4964   9.9483  11.3548  11.6458  11.9671  12.2136  13.6591  13.8573
    14.5692  16.2369  17.7514  19.0165  22.5086  23.5722  27.5247  28.1478
    31.9048  32.5069  37.3050  37.6416

     occupation numbers 
     1.0000   1.0000   1.0000   1.0000   1.0000   1.0000   0.4945   0.2010
     0.0001   0.0000   0.0000   0.0000   0.0000   0.0000   0.0000   0.0000
     0.0000   0.0000   0.0000   0.0000

          k =-0.1000 0.7000-0.1000     band energies (ev):

     9.5628   9.6950  11.2926  11.7949  11.9204  12.5721  13.3780  13.9993
    14.9210  15.9052  17.5578  18.8888  25.0084  25.2509  25.8253  26.0132
    33.7267  34.0286  34.1903  34.6632

     occupation numbers 
     1.0000   1.0000   1.0000   1.0000   1.0000   1.0000   0.8760   0.0766
     0.0000   0.0000   0.0000   0.0000   0.0000   0.0000   0.0000   0.0000
     0.0000   0.0000   0.0000   0.0000

          k = 0.8000-0.2000-0.1000     band energies (ev):

     9.4945   9.6230  11.5781  11.6389  11.7514  12.8388  13.5337  13.9041
    15.2422  16.0746  20.1824  21.1429  21.8375  22.8470  24.5516  25.2836
    33.6043  34.1424  36.2990  36.5821

     occupation numbers 
     1.0000   1.0000   1.0000   1.0000   1.0000   0.9997   0.6942   0.1510
     0.0000   0.0000   0.0000   0.0000   0.0000   0.0000   0.0000   0.0000
     0.0000   0.0000   0.0000   0.0000

          k = 0.0000 0.7000 0.0000     band energies (ev):

     9.3987   9.6184  11.1013  11.9072  12.5118  12.5129  13.1126  14.7968
    14.7987  15.6195  17.0712  18.3923  26.5007  26.5009  27.1445  27.1446
    31.8379  32.0847  32.5006  32.8591

     occupation numbers 
     1.0000   1.0000   1.0000   1.0000   1.0000   1.0000   0.9880   0.0000
     0.0000   0.0000   0.0000   0.0000   0.0000   0.0000   0.0000   0.0000
     0.0000   0.0000   0.0000   0.0000

          k =-0.1000 0.8000 0.0000     band energies (ev):

     9.2666   9.3160  11.2831  11.4814  12.6783  12.8663  13.5802  15.0229
    15.2109  16.1428  19.7899  20.6683  23.4409  24.1391  25.1161  25.6415
    31.7420  32.4993  33.4670  34.1045

     occupation numbers 
     1.0000   1.0000   1.0000   1.0000   1.0000   0.9995   0.6234   0.0000
     0.0000   0.0000   0.0000   0.0000   0.0000   0.0000   0.0000   0.0000
     0.0000   0.0000   0.0000   0.0000

          k = 0.8000 0.0000-0.1000     band energies (ev):

     9.2669   9.3156  11.2832  11.4812  12.6762  12.8693  13.5793  15.0204
    15.2137  16.1425  19.7899  20.6682  23.4407  24.1390  25.1163  25.6415
    31.7422  32.4994  33.4667  34.1043

     occupation numbers 
     1.0000   1.0000   1.0000   1.0000   1.0000   0.9995   0.6248   0.0000
     0.0000   0.0000   0.0000   0.0000   0.0000   0.0000   0.0000   0.0000
     0.0000   0.0000   0.0000   0.0000

          k = 0.0000 0.9000 0.0000     band energies (ev):

     8.9974   9.0013  11.1047  11.1553  13.4354  13.4451  13.5655  15.9476
    15.9550  16.1282  21.9469  22.4489  23.6054  23.6071  24.0202  24.0206
    31.3686  31.8809  32.1772  32.6900

     occupation numbers 
     1.0000   1.0000   1.0000   1.0000   0.8202   0.8094   0.6464   0.0000
     0.0000   0.0000   0.0000   0.0000   0.0000   0.0000   0.0000   0.0000
     0.0000   0.0000   0.0000   0.0000

     the Fermi energy is    13.6558 ev

     Writing output data file Fe_nscf_e70_k10_nb20_so.save

     init_run     :      0.43s CPU      0.43s WALL (       1 calls)
     electrons    :     29.48s CPU     29.76s WALL (       1 calls)

     Called by init_run:
     wfcinit      :      0.00s CPU      0.00s WALL (       1 calls)
     potinit      :      0.05s CPU      0.05s WALL (       1 calls)

     Called by electrons:
     c_bands      :     29.48s CPU     29.75s WALL (       1 calls)
     v_of_rho     :      0.04s CPU      0.04s WALL (       1 calls)
     v_h          :      0.00s CPU      0.00s WALL (       1 calls)
     v_xc         :      0.04s CPU      0.04s WALL (       1 calls)

     Called by c_bands:
     init_us_2    :      0.04s CPU      0.05s WALL (      99 calls)
     cegterg      :     27.10s CPU     27.22s WALL (     103 calls)

     Called by sum_band:

     Called by *egterg:
     h_psi        :     16.37s CPU     16.50s WALL (    1610 calls)
     g_psi        :      0.24s CPU      0.24s WALL (    1408 calls)
     cdiaghg      :      2.52s CPU      2.52s WALL (    1507 calls)
     cegterg:over :      4.17s CPU      4.18s WALL (    1408 calls)
     cegterg:upda :      3.32s CPU      3.32s WALL (    1408 calls)
     cegterg:last :      1.63s CPU      1.64s WALL (     307 calls)

     Called by h_psi:
     h_psi:vloc   :     14.24s CPU     14.37s WALL (    1610 calls)
     h_psi:vnl    :      2.03s CPU      2.03s WALL (    1610 calls)
     add_vuspsi   :      1.03s CPU      1.03s WALL (    1610 calls)

     General routines
     calbec       :      1.00s CPU      0.99s WALL (    1610 calls)
     fft          :      0.01s CPU      0.01s WALL (      23 calls)
     fftw         :     11.11s CPU     11.22s WALL (   77100 calls)
     davcio       :      0.05s CPU      0.05s WALL (     198 calls)

     Parallel routines
     fft_scatter  :      1.13s CPU      1.11s WALL (   77123 calls)

     PWSCF        :    30.63s CPU        31.71s WALL


   This run was terminated on:  17:28: 7  30Jun2015            

=------------------------------------------------------------------------------=
   JOB DONE.
=------------------------------------------------------------------------------=
