
     Program PWSCF v.5.1 starts on 14Sep2017 at 13:33:48 

     This program is part of the open-source Quantum ESPRESSO suite
     for quantum simulation of materials; please cite
         "P. Giannozzi et al., J. Phys.:Condens. Matter 21 395502 (2009);
          URL http://www.quantum-espresso.org", 
     in publications or presentations arising from this work. More details at
     http://www.quantum-espresso.org/quote

     Parallel version (MPI), running on     1 processors
     Waiting for input...
     Reading input from standard input
     Message from routine read_cards :
     DEPRECATED: no units specified in ATOMIC_POSITIONS card
     Message from routine read_cards :
     ATOMIC_POSITIONS: units set to alat

     Current dimensions of program PWSCF are:
     Max number of different atomic species (ntypx) = 10
     Max number of k-points (npk) =  40000
     Max angular momentum in pseudopotentials (lmaxx) =  3

     Atomic positions and unit cell read from directory:
     ./Fe_nscf_e70_k10_nb10.save/


     Subspace diagonalization in iterative solution of the eigenvalue problem:
     a serial algorithm will be used


     G-vector sticks info
     --------------------
     sticks:   dense  smooth     PW     G-vecs:    dense   smooth      PW
     Sum         467     467    151                 6363     6363    1157

     Generating pointlists ...
     new r_m :   0.3572 (alat units)  1.9362 (a.u.) for type    1


     bravais-lattice index     =            3
     lattice parameter (alat)  =       5.4200  a.u.
     unit-cell volume          =      79.6100 (a.u.)^3
     number of atoms/cell      =            1
     number of atomic types    =            1
     number of electrons       =         8.00
     number of Kohn-Sham states=           10
     kinetic-energy cutoff     =      70.0000  Ry
     charge density cutoff     =     280.0000  Ry
     Exchange-correlation      = PBE ( 1  4  3  4 0)

     celldm(1)=   5.420000  celldm(2)=   0.000000  celldm(3)=   0.000000
     celldm(4)=   0.000000  celldm(5)=   0.000000  celldm(6)=   0.000000

     crystal axes: (cart. coord. in units of alat)
               a(1) = (   0.500000   0.500000   0.500000 )  
               a(2) = (  -0.500000   0.500000   0.500000 )  
               a(3) = (  -0.500000  -0.500000   0.500000 )  

     reciprocal axes: (cart. coord. in units 2 pi/alat)
               b(1) = (  1.000000  0.000000  1.000000 )  
               b(2) = ( -1.000000  1.000000  0.000000 )  
               b(3) = (  0.000000 -1.000000  1.000000 )  


     PseudoPot. # 1 for Fe read from file:
     ./Fe.rel-pbe-n-nc.UPF
     MD5 check sum: 94258d60e67ccf79570366bad73e55f4
     Pseudo is Norm-conserving + core correction, Zval =  8.0
     Generated using "atomic" code by A. Dal Corso  v.5.0.2 svn rev. 10042M
     Using radial grid of 1191 points,  2 beta functions with: 
                l(1) =   1
                l(2) =   2

     atomic species   valence    mass     pseudopotential
        Fe             8.00    55.84500     Fe( 1.00)

     Starting magnetic structure 
     atomic species   magnetization
        Fe           1.000

     48 Sym. Ops., with inversion, found


                                    s                        frac. trans.

      isym =  1     identity                                     

 cryst.   s( 1) = (     1          0          0      )
                  (     0          1          0      )
                  (     0          0          1      )

 cart.    s( 1) = (  1.0000000  0.0000000  0.0000000 )
                  (  0.0000000  1.0000000  0.0000000 )
                  (  0.0000000  0.0000000  1.0000000 )


      isym =  2     180 deg rotation - cart. axis [0,0,1]        

 cryst.   s( 2) = (     0          0          1      )
                  (     1         -1          1      )
                  (     1          0          0      )

 cart.    s( 2) = ( -1.0000000  0.0000000  0.0000000 )
                  (  0.0000000 -1.0000000  0.0000000 )
                  (  0.0000000  0.0000000  1.0000000 )


      isym =  3     180 deg rotation - cart. axis [0,1,0]        

 cryst.   s( 3) = (    -1          1         -1      )
                  (     0          0         -1      )
                  (     0         -1          0      )

 cart.    s( 3) = ( -1.0000000  0.0000000  0.0000000 )
                  (  0.0000000  1.0000000  0.0000000 )
                  (  0.0000000  0.0000000 -1.0000000 )


      isym =  4     180 deg rotation - cart. axis [1,0,0]        

 cryst.   s( 4) = (     0         -1          0      )
                  (    -1          0          0      )
                  (    -1          1         -1      )

 cart.    s( 4) = (  1.0000000  0.0000000  0.0000000 )
                  (  0.0000000 -1.0000000  0.0000000 )
                  (  0.0000000  0.0000000 -1.0000000 )


      isym =  5     180 deg rotation - cart. axis [1,1,0]        

 cryst.   s( 5) = (     0          0         -1      )
                  (     0         -1          0      )
                  (    -1          0          0      )

 cart.    s( 5) = (  0.0000000  1.0000000  0.0000000 )
                  (  1.0000000  0.0000000  0.0000000 )
                  (  0.0000000  0.0000000 -1.0000000 )


      isym =  6     180 deg rotation - cart. axis [1,-1,0]       

 cryst.   s( 6) = (    -1          0          0      )
                  (    -1          1         -1      )
                  (     0          0         -1      )

 cart.    s( 6) = (  0.0000000 -1.0000000  0.0000000 )
                  ( -1.0000000  0.0000000  0.0000000 )
                  (  0.0000000  0.0000000 -1.0000000 )


      isym =  7      90 deg rotation - cart. axis [0,0,-1]       

 cryst.   s( 7) = (     1         -1          1      )
                  (     1          0          0      )
                  (     0          1          0      )

 cart.    s( 7) = (  0.0000000  1.0000000  0.0000000 )
                  ( -1.0000000  0.0000000  0.0000000 )
                  (  0.0000000  0.0000000  1.0000000 )


      isym =  8      90 deg rotation - cart. axis [0,0,1]        

 cryst.   s( 8) = (     0          1          0      )
                  (     0          0          1      )
                  (     1         -1          1      )

 cart.    s( 8) = (  0.0000000 -1.0000000  0.0000000 )
                  (  1.0000000  0.0000000  0.0000000 )
                  (  0.0000000  0.0000000  1.0000000 )


      isym =  9     180 deg rotation - cart. axis [1,0,1]        

 cryst.   s( 9) = (     1         -1          1      )
                  (     0         -1          0      )
                  (     0          0         -1      )

 cart.    s( 9) = (  0.0000000  0.0000000  1.0000000 )
                  (  0.0000000 -1.0000000  0.0000000 )
                  (  1.0000000  0.0000000  0.0000000 )


      isym = 10     180 deg rotation - cart. axis [-1,0,1]       

 cryst.   s(10) = (    -1          0          0      )
                  (     0          0          1      )
                  (     0          1          0      )

 cart.    s(10) = (  0.0000000  0.0000000 -1.0000000 )
                  (  0.0000000 -1.0000000  0.0000000 )
                  ( -1.0000000  0.0000000  0.0000000 )


      isym = 11      90 deg rotation - cart. axis [0,1,0]        

 cryst.   s(11) = (     0          0         -1      )
                  (     1          0          0      )
                  (     1         -1          1      )

 cart.    s(11) = (  0.0000000  0.0000000  1.0000000 )
                  (  0.0000000  1.0000000  0.0000000 )
                  ( -1.0000000  0.0000000  0.0000000 )


      isym = 12      90 deg rotation - cart. axis [0,-1,0]       

 cryst.   s(12) = (     0          1          0      )
                  (    -1          1         -1      )
                  (    -1          0          0      )

 cart.    s(12) = (  0.0000000  0.0000000 -1.0000000 )
                  (  0.0000000  1.0000000  0.0000000 )
                  (  1.0000000  0.0000000  0.0000000 )


      isym = 13     180 deg rotation - cart. axis [0,1,1]        

 cryst.   s(13) = (     0          1          0      )
                  (     1          0          0      )
                  (     0          0         -1      )

 cart.    s(13) = ( -1.0000000  0.0000000  0.0000000 )
                  (  0.0000000  0.0000000  1.0000000 )
                  (  0.0000000  1.0000000  0.0000000 )


      isym = 14     180 deg rotation - cart. axis [0,1,-1]       

 cryst.   s(14) = (    -1          0          0      )
                  (     0         -1          0      )
                  (     1         -1          1      )

 cart.    s(14) = ( -1.0000000  0.0000000  0.0000000 )
                  (  0.0000000  0.0000000 -1.0000000 )
                  (  0.0000000 -1.0000000  0.0000000 )


      isym = 15      90 deg rotation - cart. axis [-1,0,0]       

 cryst.   s(15) = (     0          0         -1      )
                  (    -1          1         -1      )
                  (     0          1          0      )

 cart.    s(15) = (  1.0000000  0.0000000  0.0000000 )
                  (  0.0000000  0.0000000  1.0000000 )
                  (  0.0000000 -1.0000000  0.0000000 )


      isym = 16      90 deg rotation - cart. axis [1,0,0]        

 cryst.   s(16) = (     1         -1          1      )
                  (     0          0          1      )
                  (    -1          0          0      )

 cart.    s(16) = (  1.0000000  0.0000000  0.0000000 )
                  (  0.0000000  0.0000000 -1.0000000 )
                  (  0.0000000  1.0000000  0.0000000 )


      isym = 17     120 deg rotation - cart. axis [-1,-1,-1]     

 cryst.   s(17) = (     1          0          0      )
                  (     0          0         -1      )
                  (    -1          1         -1      )

 cart.    s(17) = (  0.0000000  1.0000000  0.0000000 )
                  (  0.0000000  0.0000000  1.0000000 )
                  (  1.0000000  0.0000000  0.0000000 )


      isym = 18     120 deg rotation - cart. axis [-1,1,1]       

 cryst.   s(18) = (    -1          1         -1      )
                  (     0          1          0      )
                  (     1          0          0      )

 cart.    s(18) = (  0.0000000 -1.0000000  0.0000000 )
                  (  0.0000000  0.0000000  1.0000000 )
                  ( -1.0000000  0.0000000  0.0000000 )


      isym = 19     120 deg rotation - cart. axis [1,1,-1]       

 cryst.   s(19) = (     0         -1          0      )
                  (     1         -1          1      )
                  (     0          0          1      )

 cart.    s(19) = (  0.0000000  1.0000000  0.0000000 )
                  (  0.0000000  0.0000000 -1.0000000 )
                  ( -1.0000000  0.0000000  0.0000000 )


      isym = 20     120 deg rotation - cart. axis [1,-1,1]       

 cryst.   s(20) = (     0          0          1      )
                  (    -1          0          0      )
                  (     0         -1          0      )

 cart.    s(20) = (  0.0000000 -1.0000000  0.0000000 )
                  (  0.0000000  0.0000000 -1.0000000 )
                  (  1.0000000  0.0000000  0.0000000 )


      isym = 21     120 deg rotation - cart. axis [1,1,1]        

 cryst.   s(21) = (     1          0          0      )
                  (     1         -1          1      )
                  (     0         -1          0      )

 cart.    s(21) = (  0.0000000  0.0000000  1.0000000 )
                  (  1.0000000  0.0000000  0.0000000 )
                  (  0.0000000  1.0000000  0.0000000 )


      isym = 22     120 deg rotation - cart. axis [-1,1,-1]      

 cryst.   s(22) = (     0         -1          0      )
                  (     0          0         -1      )
                  (     1          0          0      )

 cart.    s(22) = (  0.0000000  0.0000000  1.0000000 )
                  ( -1.0000000  0.0000000  0.0000000 )
                  (  0.0000000 -1.0000000  0.0000000 )


      isym = 23     120 deg rotation - cart. axis [1,-1,-1]      

 cryst.   s(23) = (     0          0          1      )
                  (     0          1          0      )
                  (    -1          1         -1      )

 cart.    s(23) = (  0.0000000  0.0000000 -1.0000000 )
                  ( -1.0000000  0.0000000  0.0000000 )
                  (  0.0000000  1.0000000  0.0000000 )


      isym = 24     120 deg rotation - cart. axis [-1,-1,1]      

 cryst.   s(24) = (    -1          1         -1      )
                  (    -1          0          0      )
                  (     0          0          1      )

 cart.    s(24) = (  0.0000000  0.0000000 -1.0000000 )
                  (  1.0000000  0.0000000  0.0000000 )
                  (  0.0000000 -1.0000000  0.0000000 )


      isym = 25     inversion                                    

 cryst.   s(25) = (    -1          0          0      )
                  (     0         -1          0      )
                  (     0          0         -1      )

 cart.    s(25) = ( -1.0000000  0.0000000  0.0000000 )
                  (  0.0000000 -1.0000000  0.0000000 )
                  (  0.0000000  0.0000000 -1.0000000 )


      isym = 26     inv. 180 deg rotation - cart. axis [0,0,1]   

 cryst.   s(26) = (     0          0         -1      )
                  (    -1          1         -1      )
                  (    -1          0          0      )

 cart.    s(26) = (  1.0000000  0.0000000  0.0000000 )
                  (  0.0000000  1.0000000  0.0000000 )
                  (  0.0000000  0.0000000 -1.0000000 )


      isym = 27     inv. 180 deg rotation - cart. axis [0,1,0]   

 cryst.   s(27) = (     1         -1          1      )
                  (     0          0          1      )
                  (     0          1          0      )

 cart.    s(27) = (  1.0000000  0.0000000  0.0000000 )
                  (  0.0000000 -1.0000000  0.0000000 )
                  (  0.0000000  0.0000000  1.0000000 )


      isym = 28     inv. 180 deg rotation - cart. axis [1,0,0]   

 cryst.   s(28) = (     0          1          0      )
                  (     1          0          0      )
                  (     1         -1          1      )

 cart.    s(28) = ( -1.0000000  0.0000000  0.0000000 )
                  (  0.0000000  1.0000000  0.0000000 )
                  (  0.0000000  0.0000000  1.0000000 )


      isym = 29     inv. 180 deg rotation - cart. axis [1,1,0]   

 cryst.   s(29) = (     0          0          1      )
                  (     0          1          0      )
                  (     1          0          0      )

 cart.    s(29) = (  0.0000000 -1.0000000  0.0000000 )
                  ( -1.0000000  0.0000000  0.0000000 )
                  (  0.0000000  0.0000000  1.0000000 )


      isym = 30     inv. 180 deg rotation - cart. axis [1,-1,0]  

 cryst.   s(30) = (     1          0          0      )
                  (     1         -1          1      )
                  (     0          0          1      )

 cart.    s(30) = (  0.0000000  1.0000000  0.0000000 )
                  (  1.0000000  0.0000000  0.0000000 )
                  (  0.0000000  0.0000000  1.0000000 )


      isym = 31     inv.  90 deg rotation - cart. axis [0,0,-1]  

 cryst.   s(31) = (    -1          1         -1      )
                  (    -1          0          0      )
                  (     0         -1          0      )

 cart.    s(31) = (  0.0000000 -1.0000000  0.0000000 )
                  (  1.0000000  0.0000000  0.0000000 )
                  (  0.0000000  0.0000000 -1.0000000 )


      isym = 32     inv.  90 deg rotation - cart. axis [0,0,1]   

 cryst.   s(32) = (     0         -1          0      )
                  (     0          0         -1      )
                  (    -1          1         -1      )

 cart.    s(32) = (  0.0000000  1.0000000  0.0000000 )
                  ( -1.0000000  0.0000000  0.0000000 )
                  (  0.0000000  0.0000000 -1.0000000 )


      isym = 33     inv. 180 deg rotation - cart. axis [1,0,1]   

 cryst.   s(33) = (    -1          1         -1      )
                  (     0          1          0      )
                  (     0          0          1      )

 cart.    s(33) = (  0.0000000  0.0000000 -1.0000000 )
                  (  0.0000000  1.0000000  0.0000000 )
                  ( -1.0000000  0.0000000  0.0000000 )


      isym = 34     inv. 180 deg rotation - cart. axis [-1,0,1]  

 cryst.   s(34) = (     1          0          0      )
                  (     0          0         -1      )
                  (     0         -1          0      )

 cart.    s(34) = (  0.0000000  0.0000000  1.0000000 )
                  (  0.0000000  1.0000000  0.0000000 )
                  (  1.0000000  0.0000000  0.0000000 )


      isym = 35     inv.  90 deg rotation - cart. axis [0,1,0]   

 cryst.   s(35) = (     0          0          1      )
                  (    -1          0          0      )
                  (    -1          1         -1      )

 cart.    s(35) = (  0.0000000  0.0000000 -1.0000000 )
                  (  0.0000000 -1.0000000  0.0000000 )
                  (  1.0000000  0.0000000  0.0000000 )


      isym = 36     inv.  90 deg rotation - cart. axis [0,-1,0]  

 cryst.   s(36) = (     0         -1          0      )
                  (     1         -1          1      )
                  (     1          0          0      )

 cart.    s(36) = (  0.0000000  0.0000000  1.0000000 )
                  (  0.0000000 -1.0000000  0.0000000 )
                  ( -1.0000000  0.0000000  0.0000000 )


      isym = 37     inv. 180 deg rotation - cart. axis [0,1,1]   

 cryst.   s(37) = (     0         -1          0      )
                  (    -1          0          0      )
                  (     0          0          1      )

 cart.    s(37) = (  1.0000000  0.0000000  0.0000000 )
                  (  0.0000000  0.0000000 -1.0000000 )
                  (  0.0000000 -1.0000000  0.0000000 )


      isym = 38     inv. 180 deg rotation - cart. axis [0,1,-1]  

 cryst.   s(38) = (     1          0          0      )
                  (     0          1          0      )
                  (    -1          1         -1      )

 cart.    s(38) = (  1.0000000  0.0000000  0.0000000 )
                  (  0.0000000  0.0000000  1.0000000 )
                  (  0.0000000  1.0000000  0.0000000 )


      isym = 39     inv.  90 deg rotation - cart. axis [-1,0,0]  

 cryst.   s(39) = (     0          0          1      )
                  (     1         -1          1      )
                  (     0         -1          0      )

 cart.    s(39) = ( -1.0000000  0.0000000  0.0000000 )
                  (  0.0000000  0.0000000 -1.0000000 )
                  (  0.0000000  1.0000000  0.0000000 )


      isym = 40     inv.  90 deg rotation - cart. axis [1,0,0]   

 cryst.   s(40) = (    -1          1         -1      )
                  (     0          0         -1      )
                  (     1          0          0      )

 cart.    s(40) = ( -1.0000000  0.0000000  0.0000000 )
                  (  0.0000000  0.0000000  1.0000000 )
                  (  0.0000000 -1.0000000  0.0000000 )


      isym = 41     inv. 120 deg rotation - cart. axis [-1,-1,-1]

 cryst.   s(41) = (    -1          0          0      )
                  (     0          0          1      )
                  (     1         -1          1      )

 cart.    s(41) = (  0.0000000 -1.0000000  0.0000000 )
                  (  0.0000000  0.0000000 -1.0000000 )
                  ( -1.0000000  0.0000000  0.0000000 )


      isym = 42     inv. 120 deg rotation - cart. axis [-1,1,1]  

 cryst.   s(42) = (     1         -1          1      )
                  (     0         -1          0      )
                  (    -1          0          0      )

 cart.    s(42) = (  0.0000000  1.0000000  0.0000000 )
                  (  0.0000000  0.0000000 -1.0000000 )
                  (  1.0000000  0.0000000  0.0000000 )


      isym = 43     inv. 120 deg rotation - cart. axis [1,1,-1]  

 cryst.   s(43) = (     0          1          0      )
                  (    -1          1         -1      )
                  (     0          0         -1      )

 cart.    s(43) = (  0.0000000 -1.0000000  0.0000000 )
                  (  0.0000000  0.0000000  1.0000000 )
                  (  1.0000000  0.0000000  0.0000000 )


      isym = 44     inv. 120 deg rotation - cart. axis [1,-1,1]  

 cryst.   s(44) = (     0          0         -1      )
                  (     1          0          0      )
                  (     0          1          0      )

 cart.    s(44) = (  0.0000000  1.0000000  0.0000000 )
                  (  0.0000000  0.0000000  1.0000000 )
                  ( -1.0000000  0.0000000  0.0000000 )


      isym = 45     inv. 120 deg rotation - cart. axis [1,1,1]   

 cryst.   s(45) = (    -1          0          0      )
                  (    -1          1         -1      )
                  (     0          1          0      )

 cart.    s(45) = (  0.0000000  0.0000000 -1.0000000 )
                  ( -1.0000000  0.0000000  0.0000000 )
                  (  0.0000000 -1.0000000  0.0000000 )


      isym = 46     inv. 120 deg rotation - cart. axis [-1,1,-1] 

 cryst.   s(46) = (     0          1          0      )
                  (     0          0          1      )
                  (    -1          0          0      )

 cart.    s(46) = (  0.0000000  0.0000000 -1.0000000 )
                  (  1.0000000  0.0000000  0.0000000 )
                  (  0.0000000  1.0000000  0.0000000 )


      isym = 47     inv. 120 deg rotation - cart. axis [1,-1,-1] 

 cryst.   s(47) = (     0          0         -1      )
                  (     0         -1          0      )
                  (     1         -1          1      )

 cart.    s(47) = (  0.0000000  0.0000000  1.0000000 )
                  (  1.0000000  0.0000000  0.0000000 )
                  (  0.0000000 -1.0000000  0.0000000 )


      isym = 48     inv. 120 deg rotation - cart. axis [-1,-1,1] 

 cryst.   s(48) = (     1         -1          1      )
                  (     1          0          0      )
                  (     0          0         -1      )

 cart.    s(48) = (  0.0000000  0.0000000  1.0000000 )
                  ( -1.0000000  0.0000000  0.0000000 )
                  (  0.0000000  1.0000000  0.0000000 )


     point group O_h (m-3m) 
     there are 10 classes
     the character table:

       E     8C3   6C2'  6C4   3C2   i     6S4   8S6   3s_h  6s_d 
A_1g   1.00  1.00  1.00  1.00  1.00  1.00  1.00  1.00  1.00  1.00
A_2g   1.00  1.00 -1.00 -1.00  1.00  1.00 -1.00  1.00  1.00 -1.00
E_g    2.00 -1.00  0.00  0.00  2.00  2.00  0.00 -1.00  2.00  0.00
T_1g   3.00  0.00 -1.00  1.00 -1.00  3.00  1.00  0.00 -1.00 -1.00
T_2g   3.00  0.00  1.00 -1.00 -1.00  3.00 -1.00  0.00 -1.00  1.00
A_1u   1.00  1.00  1.00  1.00  1.00 -1.00 -1.00 -1.00 -1.00 -1.00
A_2u   1.00  1.00 -1.00 -1.00  1.00 -1.00  1.00 -1.00 -1.00  1.00
E_u    2.00 -1.00  0.00  0.00  2.00 -2.00  0.00  1.00 -2.00  0.00
T_1u   3.00  0.00 -1.00  1.00 -1.00 -3.00 -1.00  0.00  1.00  1.00
T_2u   3.00  0.00  1.00 -1.00 -1.00 -3.00  1.00  0.00  1.00 -1.00

     the symmetry operations in each class:
     E        1
     3C2      2    4    3
     6C2'     5    6   14   13   10    9
     6C4      7    8   15   16   12   11
     8C3     17   19   20   18   24   21   22   23
     i       25
     3s_h    26   28   27
     6s_d    29   30   38   37   34   33
     6S4     31   32   39   40   36   35
     8S6     41   43   44   42   48   45   46   47

   Cartesian axes

     site n.     atom                  positions (alat units)
         1           Fe  tau(   1) = (   0.0000000   0.0000000   0.0000000  )

   Crystallographic axes

     site n.     atom                  positions (cryst. coord.)
         1           Fe  tau(   1) = (  0.0000000  0.0000000  0.0000000  )

     number of k points=    88  gaussian smearing, width (Ry)=  0.0250
                       cart. coord. in units 2pi/alat
        k(    1) = (   0.0000000   0.0000000   0.1000000), wk =   0.0060000
        k(    2) = (   0.0000000  -0.1000000   0.2000000), wk =   0.0240000
        k(    3) = (   0.0000000  -0.2000000   0.3000000), wk =   0.0240000
        k(    4) = (   0.0000000  -0.3000000   0.4000000), wk =   0.0240000
        k(    5) = (   0.0000000  -0.4000000   0.5000000), wk =   0.0240000
        k(    6) = (  -0.1000000   0.1000000   0.1000000), wk =   0.0080000
        k(    7) = (  -0.1000000  -0.1000000   0.3000000), wk =   0.0240000
        k(    8) = (  -0.1000000  -0.2000000   0.4000000), wk =   0.0480000
        k(    9) = (  -0.1000000  -0.3000000   0.5000000), wk =   0.0480000
        k(   10) = (  -0.1000000   0.6000000  -0.4000000), wk =   0.0240000
        k(   11) = (  -0.2000000   0.2000000   0.1000000), wk =   0.0240000
        k(   12) = (  -0.2000000  -0.2000000   0.5000000), wk =   0.0240000
        k(   13) = (  -0.2000000   0.7000000  -0.4000000), wk =   0.0480000
        k(   14) = (  -0.3000000   0.3000000   0.1000000), wk =   0.0240000
        k(   15) = (  -0.3000000   0.2000000   0.2000000), wk =   0.0240000
        k(   16) = (  -0.3000000   0.7000000  -0.3000000), wk =   0.0080000
        k(   17) = (  -0.4000000   0.4000000   0.1000000), wk =   0.0240000
        k(   18) = (  -0.4000000   0.3000000   0.2000000), wk =   0.0480000
        k(   19) = (   0.5000000  -0.5000000   0.1000000), wk =   0.0120000
        k(   20) = (   0.5000000  -0.6000000   0.2000000), wk =   0.0480000
        k(   21) = (   0.5000000  -0.7000000   0.3000000), wk =   0.0240000
        k(   22) = (   0.4000000  -0.6000000   0.3000000), wk =   0.0240000
        k(   23) = (   0.0000000   0.0000000   0.3000000), wk =   0.0060000
        k(   24) = (   0.0000000  -0.1000000   0.4000000), wk =   0.0240000
        k(   25) = (   0.0000000  -0.2000000   0.5000000), wk =   0.0240000
        k(   26) = (   0.0000000  -0.3000000   0.6000000), wk =   0.0240000
        k(   27) = (  -0.1000000  -0.1000000   0.5000000), wk =   0.0240000
        k(   28) = (  -0.1000000  -0.2000000   0.6000000), wk =   0.0480000
        k(   29) = (  -0.1000000   0.7000000  -0.3000000), wk =   0.0240000
        k(   30) = (  -0.2000000   0.8000000  -0.3000000), wk =   0.0240000
        k(   31) = (  -0.3000000   0.3000000   0.3000000), wk =   0.0080000
        k(   32) = (   0.6000000  -0.6000000   0.3000000), wk =   0.0240000
        k(   33) = (   0.5000000  -0.5000000   0.3000000), wk =   0.0120000
        k(   34) = (   0.5000000  -0.6000000   0.4000000), wk =   0.0240000
        k(   35) = (   0.0000000   0.0000000   0.5000000), wk =   0.0060000
        k(   36) = (   0.0000000  -0.1000000   0.6000000), wk =   0.0240000
        k(   37) = (   0.0000000  -0.2000000   0.7000000), wk =   0.0240000
        k(   38) = (  -0.1000000  -0.1000000   0.7000000), wk =   0.0240000
        k(   39) = (  -0.1000000   0.8000000  -0.2000000), wk =   0.0240000
        k(   40) = (   0.5000000  -0.5000000   0.5000000), wk =   0.0020000
        k(   41) = (   0.0000000   0.0000000   0.7000000), wk =   0.0060000
        k(   42) = (   0.0000000  -0.1000000   0.8000000), wk =   0.0240000
        k(   43) = (  -0.1000000   0.9000000  -0.1000000), wk =   0.0080000
        k(   44) = (   0.0000000   0.0000000   0.9000000), wk =   0.0060000
        k(   45) = (   0.0000000   0.0000000   0.1000000), wk =   0.0060000
        k(   46) = (   0.0000000  -0.1000000   0.2000000), wk =   0.0240000
        k(   47) = (   0.0000000  -0.2000000   0.3000000), wk =   0.0240000
        k(   48) = (   0.0000000  -0.3000000   0.4000000), wk =   0.0240000
        k(   49) = (   0.0000000  -0.4000000   0.5000000), wk =   0.0240000
        k(   50) = (  -0.1000000   0.1000000   0.1000000), wk =   0.0080000
        k(   51) = (  -0.1000000  -0.1000000   0.3000000), wk =   0.0240000
        k(   52) = (  -0.1000000  -0.2000000   0.4000000), wk =   0.0480000
        k(   53) = (  -0.1000000  -0.3000000   0.5000000), wk =   0.0480000
        k(   54) = (  -0.1000000   0.6000000  -0.4000000), wk =   0.0240000
        k(   55) = (  -0.2000000   0.2000000   0.1000000), wk =   0.0240000
        k(   56) = (  -0.2000000  -0.2000000   0.5000000), wk =   0.0240000
        k(   57) = (  -0.2000000   0.7000000  -0.4000000), wk =   0.0480000
        k(   58) = (  -0.3000000   0.3000000   0.1000000), wk =   0.0240000
        k(   59) = (  -0.3000000   0.2000000   0.2000000), wk =   0.0240000
        k(   60) = (  -0.3000000   0.7000000  -0.3000000), wk =   0.0080000
        k(   61) = (  -0.4000000   0.4000000   0.1000000), wk =   0.0240000
        k(   62) = (  -0.4000000   0.3000000   0.2000000), wk =   0.0480000
        k(   63) = (   0.5000000  -0.5000000   0.1000000), wk =   0.0120000
        k(   64) = (   0.5000000  -0.6000000   0.2000000), wk =   0.0480000
        k(   65) = (   0.5000000  -0.7000000   0.3000000), wk =   0.0240000
        k(   66) = (   0.4000000  -0.6000000   0.3000000), wk =   0.0240000
        k(   67) = (   0.0000000   0.0000000   0.3000000), wk =   0.0060000
        k(   68) = (   0.0000000  -0.1000000   0.4000000), wk =   0.0240000
        k(   69) = (   0.0000000  -0.2000000   0.5000000), wk =   0.0240000
        k(   70) = (   0.0000000  -0.3000000   0.6000000), wk =   0.0240000
        k(   71) = (  -0.1000000  -0.1000000   0.5000000), wk =   0.0240000
        k(   72) = (  -0.1000000  -0.2000000   0.6000000), wk =   0.0480000
        k(   73) = (  -0.1000000   0.7000000  -0.3000000), wk =   0.0240000
        k(   74) = (  -0.2000000   0.8000000  -0.3000000), wk =   0.0240000
        k(   75) = (  -0.3000000   0.3000000   0.3000000), wk =   0.0080000
        k(   76) = (   0.6000000  -0.6000000   0.3000000), wk =   0.0240000
        k(   77) = (   0.5000000  -0.5000000   0.3000000), wk =   0.0120000
        k(   78) = (   0.5000000  -0.6000000   0.4000000), wk =   0.0240000
        k(   79) = (   0.0000000   0.0000000   0.5000000), wk =   0.0060000
        k(   80) = (   0.0000000  -0.1000000   0.6000000), wk =   0.0240000
        k(   81) = (   0.0000000  -0.2000000   0.7000000), wk =   0.0240000
        k(   82) = (  -0.1000000  -0.1000000   0.7000000), wk =   0.0240000
        k(   83) = (  -0.1000000   0.8000000  -0.2000000), wk =   0.0240000
        k(   84) = (   0.5000000  -0.5000000   0.5000000), wk =   0.0020000
        k(   85) = (   0.0000000   0.0000000   0.7000000), wk =   0.0060000
        k(   86) = (   0.0000000  -0.1000000   0.8000000), wk =   0.0240000
        k(   87) = (  -0.1000000   0.9000000  -0.1000000), wk =   0.0080000
        k(   88) = (   0.0000000   0.0000000   0.9000000), wk =   0.0060000

                       cryst. coord.
        k(    1) = (   0.0500000   0.0500000   0.0500000), wk =   0.0060000
        k(    2) = (   0.0500000   0.0500000   0.1500000), wk =   0.0240000
        k(    3) = (   0.0500000   0.0500000   0.2500000), wk =   0.0240000
        k(    4) = (   0.0500000   0.0500000   0.3500000), wk =   0.0240000
        k(    5) = (   0.0500000   0.0500000   0.4500000), wk =   0.0240000
        k(    6) = (   0.0500000   0.1500000   0.0500000), wk =   0.0080000
        k(    7) = (   0.0500000   0.1500000   0.2500000), wk =   0.0240000
        k(    8) = (   0.0500000   0.1500000   0.3500000), wk =   0.0480000
        k(    9) = (   0.0500000   0.1500000   0.4500000), wk =   0.0480000
        k(   10) = (   0.0500000   0.1500000  -0.4500000), wk =   0.0240000
        k(   11) = (   0.0500000   0.2500000   0.0500000), wk =   0.0240000
        k(   12) = (   0.0500000   0.2500000   0.4500000), wk =   0.0240000
        k(   13) = (   0.0500000   0.2500000  -0.4500000), wk =   0.0480000
        k(   14) = (   0.0500000   0.3500000   0.0500000), wk =   0.0240000
        k(   15) = (   0.0500000   0.3500000   0.1500000), wk =   0.0240000
        k(   16) = (   0.0500000   0.3500000  -0.3500000), wk =   0.0080000
        k(   17) = (   0.0500000   0.4500000   0.0500000), wk =   0.0240000
        k(   18) = (   0.0500000   0.4500000   0.1500000), wk =   0.0480000
        k(   19) = (   0.0500000  -0.4500000   0.0500000), wk =   0.0120000
        k(   20) = (   0.0500000  -0.4500000   0.1500000), wk =   0.0480000
        k(   21) = (   0.0500000  -0.4500000   0.2500000), wk =   0.0240000
        k(   22) = (   0.0500000  -0.3500000   0.2500000), wk =   0.0240000
        k(   23) = (   0.1500000   0.1500000   0.1500000), wk =   0.0060000
        k(   24) = (   0.1500000   0.1500000   0.2500000), wk =   0.0240000
        k(   25) = (   0.1500000   0.1500000   0.3500000), wk =   0.0240000
        k(   26) = (   0.1500000   0.1500000   0.4500000), wk =   0.0240000
        k(   27) = (   0.1500000   0.2500000   0.3500000), wk =   0.0240000
        k(   28) = (   0.1500000   0.2500000   0.4500000), wk =   0.0480000
        k(   29) = (   0.1500000   0.2500000  -0.4500000), wk =   0.0240000
        k(   30) = (   0.1500000   0.3500000  -0.4500000), wk =   0.0240000
        k(   31) = (   0.1500000   0.4500000   0.1500000), wk =   0.0080000
        k(   32) = (   0.1500000  -0.4500000   0.1500000), wk =   0.0240000
        k(   33) = (   0.1500000  -0.3500000   0.1500000), wk =   0.0120000
        k(   34) = (   0.1500000  -0.3500000   0.2500000), wk =   0.0240000
        k(   35) = (   0.2500000   0.2500000   0.2500000), wk =   0.0060000
        k(   36) = (   0.2500000   0.2500000   0.3500000), wk =   0.0240000
        k(   37) = (   0.2500000   0.2500000   0.4500000), wk =   0.0240000
        k(   38) = (   0.2500000   0.3500000   0.4500000), wk =   0.0240000
        k(   39) = (   0.2500000   0.3500000  -0.4500000), wk =   0.0240000
        k(   40) = (   0.2500000  -0.2500000   0.2500000), wk =   0.0020000
        k(   41) = (   0.3500000   0.3500000   0.3500000), wk =   0.0060000
        k(   42) = (   0.3500000   0.3500000   0.4500000), wk =   0.0240000
        k(   43) = (   0.3500000   0.4500000  -0.4500000), wk =   0.0080000
        k(   44) = (   0.4500000   0.4500000   0.4500000), wk =   0.0060000
        k(   45) = (   0.0500000   0.0500000   0.0500000), wk =   0.0060000
        k(   46) = (   0.0500000   0.0500000   0.1500000), wk =   0.0240000
        k(   47) = (   0.0500000   0.0500000   0.2500000), wk =   0.0240000
        k(   48) = (   0.0500000   0.0500000   0.3500000), wk =   0.0240000
        k(   49) = (   0.0500000   0.0500000   0.4500000), wk =   0.0240000
        k(   50) = (   0.0500000   0.1500000   0.0500000), wk =   0.0080000
        k(   51) = (   0.0500000   0.1500000   0.2500000), wk =   0.0240000
        k(   52) = (   0.0500000   0.1500000   0.3500000), wk =   0.0480000
        k(   53) = (   0.0500000   0.1500000   0.4500000), wk =   0.0480000
        k(   54) = (   0.0500000   0.1500000  -0.4500000), wk =   0.0240000
        k(   55) = (   0.0500000   0.2500000   0.0500000), wk =   0.0240000
        k(   56) = (   0.0500000   0.2500000   0.4500000), wk =   0.0240000
        k(   57) = (   0.0500000   0.2500000  -0.4500000), wk =   0.0480000
        k(   58) = (   0.0500000   0.3500000   0.0500000), wk =   0.0240000
        k(   59) = (   0.0500000   0.3500000   0.1500000), wk =   0.0240000
        k(   60) = (   0.0500000   0.3500000  -0.3500000), wk =   0.0080000
        k(   61) = (   0.0500000   0.4500000   0.0500000), wk =   0.0240000
        k(   62) = (   0.0500000   0.4500000   0.1500000), wk =   0.0480000
        k(   63) = (   0.0500000  -0.4500000   0.0500000), wk =   0.0120000
        k(   64) = (   0.0500000  -0.4500000   0.1500000), wk =   0.0480000
        k(   65) = (   0.0500000  -0.4500000   0.2500000), wk =   0.0240000
        k(   66) = (   0.0500000  -0.3500000   0.2500000), wk =   0.0240000
        k(   67) = (   0.1500000   0.1500000   0.1500000), wk =   0.0060000
        k(   68) = (   0.1500000   0.1500000   0.2500000), wk =   0.0240000
        k(   69) = (   0.1500000   0.1500000   0.3500000), wk =   0.0240000
        k(   70) = (   0.1500000   0.1500000   0.4500000), wk =   0.0240000
        k(   71) = (   0.1500000   0.2500000   0.3500000), wk =   0.0240000
        k(   72) = (   0.1500000   0.2500000   0.4500000), wk =   0.0480000
        k(   73) = (   0.1500000   0.2500000  -0.4500000), wk =   0.0240000
        k(   74) = (   0.1500000   0.3500000  -0.4500000), wk =   0.0240000
        k(   75) = (   0.1500000   0.4500000   0.1500000), wk =   0.0080000
        k(   76) = (   0.1500000  -0.4500000   0.1500000), wk =   0.0240000
        k(   77) = (   0.1500000  -0.3500000   0.1500000), wk =   0.0120000
        k(   78) = (   0.1500000  -0.3500000   0.2500000), wk =   0.0240000
        k(   79) = (   0.2500000   0.2500000   0.2500000), wk =   0.0060000
        k(   80) = (   0.2500000   0.2500000   0.3500000), wk =   0.0240000
        k(   81) = (   0.2500000   0.2500000   0.4500000), wk =   0.0240000
        k(   82) = (   0.2500000   0.3500000   0.4500000), wk =   0.0240000
        k(   83) = (   0.2500000   0.3500000  -0.4500000), wk =   0.0240000
        k(   84) = (   0.2500000  -0.2500000   0.2500000), wk =   0.0020000
        k(   85) = (   0.3500000   0.3500000   0.3500000), wk =   0.0060000
        k(   86) = (   0.3500000   0.3500000   0.4500000), wk =   0.0240000
        k(   87) = (   0.3500000   0.4500000  -0.4500000), wk =   0.0080000
        k(   88) = (   0.4500000   0.4500000   0.4500000), wk =   0.0060000

     Dense  grid:     6363 G-vectors     FFT dimensions: (  25,  25,  25)

     Largest allocated arrays     est. size (Mb)     dimensions
        Kohn-Sham Wavefunctions         0.12 Mb     (     795,   10)
        NL pseudopotentials             0.10 Mb     (     795,    8)
        Each V/rho on FFT grid          0.48 Mb     (   15625,   2)
        Each G-vector array             0.05 Mb     (    6363)
        G-vector shells                 0.00 Mb     (      98)
     Largest temporary arrays     est. size (Mb)     dimensions
        Auxiliary wavefunctions         0.49 Mb     (     795,   40)
        Each subspace H/S matrix        0.02 Mb     (      40,   40)
        Each <psi_i|beta_j> matrix      0.00 Mb     (       8,   10)

     Check: negative/imaginary core charge=   -0.000002    0.000000

     The potential is recalculated from file :
     ./Fe_nscf_e70_k10_nb10.save/charge-density.dat

     Starting wfc are    9 randomized atomic wfcs +    1 random wfc

     Band Structure Calculation
     Davidson diagonalization with overlap

     Computing kpt #:     1
     total cpu time spent up to now is        0.7 secs

     Computing kpt #:     2
     total cpu time spent up to now is        0.8 secs

     Computing kpt #:     3
     total cpu time spent up to now is        0.9 secs

     Computing kpt #:     4
     total cpu time spent up to now is        1.0 secs

     Computing kpt #:     5
     total cpu time spent up to now is        1.0 secs

     Computing kpt #:     6
     total cpu time spent up to now is        1.1 secs

     Computing kpt #:     7
     total cpu time spent up to now is        1.2 secs

     Computing kpt #:     8
     total cpu time spent up to now is        1.3 secs

     Computing kpt #:     9
     total cpu time spent up to now is        1.4 secs

     Computing kpt #:    10
     total cpu time spent up to now is        1.5 secs

     Computing kpt #:    11
     total cpu time spent up to now is        1.6 secs

     Computing kpt #:    12
     total cpu time spent up to now is        1.6 secs

     Computing kpt #:    13
     total cpu time spent up to now is        1.7 secs

     Computing kpt #:    14
     total cpu time spent up to now is        1.8 secs

     Computing kpt #:    15
     total cpu time spent up to now is        1.9 secs

     Computing kpt #:    16
     total cpu time spent up to now is        2.0 secs

     Computing kpt #:    17
     total cpu time spent up to now is        2.0 secs

     Computing kpt #:    18
     total cpu time spent up to now is        2.1 secs

     Computing kpt #:    19
     total cpu time spent up to now is        2.2 secs

     Computing kpt #:    20
     total cpu time spent up to now is        2.3 secs

     Computing kpt #:    21
     total cpu time spent up to now is        2.3 secs

     Computing kpt #:    22
     total cpu time spent up to now is        2.4 secs

     Computing kpt #:    23
     total cpu time spent up to now is        2.5 secs

     Computing kpt #:    24
     total cpu time spent up to now is        2.6 secs

     Computing kpt #:    25
     total cpu time spent up to now is        2.7 secs

     Computing kpt #:    26
     total cpu time spent up to now is        2.8 secs

     Computing kpt #:    27
     total cpu time spent up to now is        2.8 secs

     Computing kpt #:    28
     total cpu time spent up to now is        2.9 secs

     Computing kpt #:    29
     total cpu time spent up to now is        3.0 secs

     Computing kpt #:    30
     total cpu time spent up to now is        3.1 secs

     Computing kpt #:    31
     total cpu time spent up to now is        3.2 secs

     Computing kpt #:    32
     total cpu time spent up to now is        3.2 secs

     Computing kpt #:    33
     total cpu time spent up to now is        3.3 secs

     Computing kpt #:    34
     total cpu time spent up to now is        3.4 secs

     Computing kpt #:    35
     total cpu time spent up to now is        3.5 secs

     Computing kpt #:    36
     total cpu time spent up to now is        3.6 secs

     Computing kpt #:    37
     total cpu time spent up to now is        3.6 secs

     Computing kpt #:    38
     total cpu time spent up to now is        3.7 secs

     Computing kpt #:    39
     total cpu time spent up to now is        3.8 secs

     Computing kpt #:    40
     total cpu time spent up to now is        3.9 secs

     Computing kpt #:    41
     total cpu time spent up to now is        3.9 secs

     Computing kpt #:    42
     total cpu time spent up to now is        4.0 secs

     Computing kpt #:    43
     total cpu time spent up to now is        4.1 secs

     Computing kpt #:    44
     total cpu time spent up to now is        4.2 secs

     Computing kpt #:    45
     total cpu time spent up to now is        4.3 secs

     Computing kpt #:    46
     total cpu time spent up to now is        4.4 secs

     Computing kpt #:    47
     total cpu time spent up to now is        4.5 secs

     Computing kpt #:    48
     total cpu time spent up to now is        4.5 secs

     Computing kpt #:    49
     total cpu time spent up to now is        4.6 secs

     Computing kpt #:    50
     total cpu time spent up to now is        4.7 secs

     Computing kpt #:    51
     total cpu time spent up to now is        4.8 secs

     Computing kpt #:    52
     total cpu time spent up to now is        4.9 secs

     Computing kpt #:    53
     total cpu time spent up to now is        5.0 secs

     Computing kpt #:    54
     total cpu time spent up to now is        5.1 secs

     Computing kpt #:    55
     total cpu time spent up to now is        5.1 secs

     Computing kpt #:    56
     total cpu time spent up to now is        5.2 secs

     Computing kpt #:    57
     total cpu time spent up to now is        5.3 secs

     Computing kpt #:    58
     total cpu time spent up to now is        5.4 secs

     Computing kpt #:    59
     total cpu time spent up to now is        5.5 secs

     Computing kpt #:    60
     total cpu time spent up to now is        5.5 secs

     Computing kpt #:    61
     total cpu time spent up to now is        5.6 secs

     Computing kpt #:    62
     total cpu time spent up to now is        5.7 secs

     Computing kpt #:    63
     total cpu time spent up to now is        5.8 secs

     Computing kpt #:    64
     total cpu time spent up to now is        5.9 secs

     Computing kpt #:    65
     total cpu time spent up to now is        5.9 secs

     Computing kpt #:    66
     total cpu time spent up to now is        6.0 secs

     Computing kpt #:    67
     total cpu time spent up to now is        6.1 secs

     Computing kpt #:    68
     total cpu time spent up to now is        6.2 secs

     Computing kpt #:    69
     total cpu time spent up to now is        6.3 secs

     Computing kpt #:    70
     total cpu time spent up to now is        6.4 secs

     Computing kpt #:    71
     total cpu time spent up to now is        6.4 secs

     Computing kpt #:    72
     total cpu time spent up to now is        6.5 secs

     Computing kpt #:    73
     total cpu time spent up to now is        6.6 secs

     Computing kpt #:    74
     total cpu time spent up to now is        6.7 secs

     Computing kpt #:    75
     total cpu time spent up to now is        6.8 secs

     Computing kpt #:    76
     total cpu time spent up to now is        6.8 secs

     Computing kpt #:    77
     total cpu time spent up to now is        6.9 secs

     Computing kpt #:    78
     total cpu time spent up to now is        7.0 secs

     Computing kpt #:    79
     total cpu time spent up to now is        7.1 secs

     Computing kpt #:    80
     total cpu time spent up to now is        7.2 secs

     Computing kpt #:    81
     total cpu time spent up to now is        7.2 secs

     Computing kpt #:    82
     total cpu time spent up to now is        7.3 secs

     Computing kpt #:    83
     total cpu time spent up to now is        7.4 secs

     Computing kpt #:    84
     total cpu time spent up to now is        7.5 secs

     Computing kpt #:    85
     total cpu time spent up to now is        7.5 secs

     Computing kpt #:    86
     total cpu time spent up to now is        7.6 secs

     Computing kpt #:    87
     total cpu time spent up to now is        7.7 secs

     Computing kpt #:    88
     total cpu time spent up to now is        7.8 secs

     ethr =  1.25E-10,  avg # of iterations = 13.5

     total cpu time spent up to now is        7.8 secs

     End of band structure calculation

 ------ SPIN UP ------------


          k = 0.0000 0.0000 0.1000 (   783 PWs)   bands (ev):

     5.2847  11.2611  11.2611  11.3159  12.3520  12.4757  38.6100  39.5825
    39.5825  42.1039

     occupation numbers 
     1.0000   1.0000   1.0000   1.0000   1.0000   1.0000   0.0000   0.0000
     0.0000   0.0000

          k = 0.0000-0.1000 0.2000 (   782 PWs)   bands (ev):

     6.0616  11.0891  11.2272  11.7072  12.1623  12.5368  35.2680  37.5661
    38.9584  41.5467

     occupation numbers 
     1.0000   1.0000   1.0000   1.0000   1.0000   1.0000   0.0000   0.0000
     0.0000   0.0000

          k = 0.0000-0.2000 0.3000 (   787 PWs)   bands (ev):

     7.4133  10.7941  11.1086  12.1698  12.4253  12.6096  30.1108  35.1119
    36.7890  40.9559

     occupation numbers 
     1.0000   1.0000   1.0000   1.0000   1.0000   1.0000   0.0000   0.0000
     0.0000   0.0000

          k = 0.0000-0.3000 0.4000 (   792 PWs)   bands (ev):

     8.5741  10.5103  11.4938  12.4047  12.8311  13.2367  25.2650  33.2343
    34.3782  40.8110

     occupation numbers 
     1.0000   1.0000   1.0000   1.0000   0.9997   0.9584   0.0000   0.0000
     0.0000   0.0000

          k = 0.0000-0.4000 0.5000 (   794 PWs)   bands (ev):

     8.8431  10.3403  12.1345  12.4629  13.8006  14.0122  21.6598  32.2327
    32.9252  40.7914

     occupation numbers 
     1.0000   1.0000   1.0000   1.0000   0.2701   0.0678   0.0000   0.0000
     0.0000   0.0000

          k =-0.1000 0.1000 0.1000 (   785 PWs)   bands (ev):

     5.6793  11.1425  11.1425  11.6302  12.3880  12.3880  37.3052  37.3052
    40.1513  40.3806

     occupation numbers 
     1.0000   1.0000   1.0000   1.0000   1.0000   1.0000   0.0000   0.0000
     0.0000   0.0000

          k =-0.1000-0.1000 0.3000 (   782 PWs)   bands (ev):

     7.1233  11.0160  11.0211  11.9860  12.2449  12.6790  32.8251  33.3026
    38.4060  39.0654

     occupation numbers 
     1.0000   1.0000   1.0000   1.0000   1.0000   1.0000   0.0000   0.0000
     0.0000   0.0000

          k =-0.1000-0.2000 0.4000 (   792 PWs)   bands (ev):

     8.4561  10.6760  10.9562  12.1178  12.7563  13.2865  27.9277  31.0850
    35.8752  39.7276

     occupation numbers 
     1.0000   1.0000   1.0000   1.0000   0.9999   0.9363   0.0000   0.0000
     0.0000   0.0000

          k =-0.1000-0.3000 0.5000 (   788 PWs)   bands (ev):

     9.0919  10.4995  11.2540  12.3442  13.1318  14.7083  23.4621  29.6695
    34.1477  40.4752

     occupation numbers 
     1.0000   1.0000   1.0000   1.0000   0.9849   0.0000   0.0000   0.0000
     0.0000   0.0000

          k =-0.1000 0.6000-0.4000 (   789 PWs)   bands (ev):

     9.1329  10.4417  11.4887  12.3722  13.4402  16.0032  21.0937  29.1376
    33.5468  40.7782

     occupation numbers 
     1.0000   1.0000   1.0000   1.0000   0.8122   0.0000   0.0000   0.0000
     0.0000   0.0000

          k =-0.2000 0.2000 0.1000 (   784 PWs)   bands (ev):

     6.7849  10.8631  10.9971  12.2688  12.2977  12.4623  32.7130  35.0854
    36.9269  40.7984

     occupation numbers 
     1.0000   1.0000   1.0000   1.0000   1.0000   1.0000   0.0000   0.0000
     0.0000   0.0000

          k =-0.2000-0.2000 0.5000 (   780 PWs)   bands (ev):

     9.3992  10.3358  10.9514  12.2443  12.9080  14.9652  26.1363  26.3836
    35.3013  39.6242

     occupation numbers 
     1.0000   1.0000   1.0000   1.0000   0.9990   0.0000   0.0000   0.0000
     0.0000   0.0000

          k =-0.2000 0.7000-0.4000 (   783 PWs)   bands (ev):

     9.6671  10.3765  10.8455  12.4583  13.0631  17.3454  22.1983  25.3259
    34.7079  40.5012

     occupation numbers 
     1.0000   1.0000   1.0000   1.0000   0.9929   0.0000   0.0000   0.0000
     0.0000   0.0000

          k =-0.3000 0.3000 0.1000 (   790 PWs)   bands (ev):

     8.1946  10.5549  11.0311  12.3571  12.5396  13.1881  27.6352  33.0577
    34.4223  41.1044

     occupation numbers 
     1.0000   1.0000   1.0000   1.0000   1.0000   0.9734   0.0000   0.0000
     0.0000   0.0000

          k =-0.3000 0.2000 0.2000 (   786 PWs)   bands (ev):

     8.0533  10.6411  10.6727  12.3143  12.5499  13.2400  30.3691  30.7216
    33.8218  42.0192

     occupation numbers 
     1.0000   1.0000   1.0000   1.0000   1.0000   0.9571   0.0000   0.0000
     0.0000   0.0000

          k =-0.3000 0.7000-0.3000 (   784 PWs)   bands (ev):

    10.1358  10.3597  10.3597  12.7945  12.7945  20.4667  20.4667  22.8954
    34.9542  41.7580

     occupation numbers 
     1.0000   1.0000   1.0000   0.9998   0.9998   0.0000   0.0000   0.0000
     0.0000   0.0000

          k =-0.4000 0.4000 0.1000 (   786 PWs)   bands (ev):

     8.8686  10.3243  12.0011  12.4989  12.6020  14.3003  23.2512  31.6951
    32.6201  41.1918

     occupation numbers 
     1.0000   1.0000   1.0000   1.0000   1.0000   0.0036   0.0000   0.0000
     0.0000   0.0000

          k =-0.4000 0.3000 0.2000 (   788 PWs)   bands (ev):

     9.1593  10.3761  10.8419  12.4130  12.6495  14.6158  25.7110  28.8776
    32.0792  42.6700

     occupation numbers 
     1.0000   1.0000   1.0000   1.0000   1.0000   0.0000   0.0000   0.0000
     0.0000   0.0000

          k = 0.5000-0.5000 0.1000 (   786 PWs)   bands (ev):

     8.9246  10.2396  12.5120  12.6270  12.7706  15.2176  21.0476  31.2176
    31.9415  41.2090

     occupation numbers 
     1.0000   1.0000   1.0000   1.0000   0.9999   0.0000   0.0000   0.0000
     0.0000   0.0000

          k = 0.5000-0.6000 0.2000 (   788 PWs)   bands (ev):

     9.3319  10.2525  11.5323  12.5231  12.7469  16.4150  21.9112  27.9360
    31.1506  42.8947

     occupation numbers 
     1.0000   1.0000   1.0000   1.0000   0.9999   0.0000   0.0000   0.0000
     0.0000   0.0000

          k = 0.5000-0.7000 0.3000 (   782 PWs)   bands (ev):

     9.7538  10.2810  10.8182  12.5150  12.7349  16.8118  24.1323  24.6963
    31.0626  43.8959

     occupation numbers 
     1.0000   1.0000   1.0000   1.0000   0.9999   0.0000   0.0000   0.0000
     0.0000   0.0000

          k = 0.4000-0.6000 0.3000 (   788 PWs)   bands (ev):

     9.8161  10.3214  10.8781  12.6055  12.7440  18.9996  21.3382  24.0510
    30.7305  44.5431

     occupation numbers 
     1.0000   1.0000   1.0000   1.0000   0.9999   0.0000   0.0000   0.0000
     0.0000   0.0000

          k = 0.0000 0.0000 0.3000 (   771 PWs)   bands (ev):

     6.7908  11.3224  11.3224  11.6965  11.7251  12.7429  35.2762  36.3908
    36.3908  36.5428

     occupation numbers 
     1.0000   1.0000   1.0000   1.0000   1.0000   0.9999   0.0000   0.0000
     0.0000   0.0000

          k = 0.0000-0.1000 0.4000 (   787 PWs)   bands (ev):

     8.0194  11.0109  11.1816  11.7445  12.3423  13.0126  30.7382  33.8257
    34.1392  37.4429

     occupation numbers 
     1.0000   1.0000   1.0000   1.0000   1.0000   0.9961   0.0000   0.0000
     0.0000   0.0000

          k = 0.0000-0.2000 0.5000 (   788 PWs)   bands (ev):

     9.0304  10.7356  10.9481  12.1096  13.1631  13.8791  25.7880  31.6522
    32.7996  39.3765

     occupation numbers 
     1.0000   1.0000   1.0000   1.0000   0.9792   0.1739   0.0000   0.0000
     0.0000   0.0000

          k = 0.0000-0.3000 0.6000 (   790 PWs)   bands (ev):

     9.2258  10.8019  10.9078  12.1796  13.7468  15.7881  21.8992  30.3563
    32.0787  41.8652

     occupation numbers 
     1.0000   1.0000   1.0000   1.0000   0.3487   0.0000   0.0000   0.0000
     0.0000   0.0000

          k =-0.1000-0.1000 0.5000 (   788 PWs)   bands (ev):

     9.0407  10.5122  11.2979  11.8889  12.8371  13.8802  28.7312  28.7895
    35.5516  35.7591

     occupation numbers 
     1.0000   1.0000   1.0000   1.0000   0.9997   0.1728   0.0000   0.0000
     0.0000   0.0000

          k =-0.1000-0.2000 0.6000 (   783 PWs)   bands (ev):

     9.5446  10.2699  11.1122  12.2133  13.3108  15.8995  24.1292  27.3129
    34.4180  38.0226

     occupation numbers 
     1.0000   1.0000   1.0000   1.0000   0.9228   0.0000   0.0000   0.0000
     0.0000   0.0000

          k =-0.1000 0.7000-0.3000 (   784 PWs)   bands (ev):

     9.5322  10.4081  10.9441  12.3011  13.5726  17.8833  21.3016  26.7572
    33.9982  40.6143

     occupation numbers 
     1.0000   1.0000   1.0000   1.0000   0.6313   0.0000   0.0000   0.0000
     0.0000   0.0000

          k =-0.2000 0.8000-0.3000 (   785 PWs)   bands (ev):

     9.9382   9.9637  10.8656  12.7014  13.2160  18.8339  22.5939  23.6290
    37.0298  37.3737

     occupation numbers 
     1.0000   1.0000   1.0000   1.0000   0.9655   0.0000   0.0000   0.0000
     0.0000   0.0000

          k =-0.3000 0.3000 0.3000 (   790 PWs)   bands (ev):

     9.3034  10.3700  10.3700  12.5233  12.5233  14.6416  28.5085  28.5085
    28.9291  44.5378

     occupation numbers 
     1.0000   1.0000   1.0000   1.0000   1.0000   0.0000   0.0000   0.0000
     0.0000   0.0000

          k = 0.6000-0.6000 0.3000 (   789 PWs)   bands (ev):

     9.8284  10.2196  10.7361  12.5772  12.6207  16.6194  24.1470  27.3474
    27.4599  46.0934

     occupation numbers 
     1.0000   1.0000   1.0000   1.0000   1.0000   0.0000   0.0000   0.0000
     0.0000   0.0000

          k = 0.5000-0.5000 0.3000 (   786 PWs)   bands (ev):

     9.7615  10.1734  11.1685  12.6122  12.6462  18.4700  21.4046  26.9522
    26.9800  46.4508

     occupation numbers 
     1.0000   1.0000   1.0000   1.0000   1.0000   0.0000   0.0000   0.0000
     0.0000   0.0000

          k = 0.5000-0.6000 0.4000 (   789 PWs)   bands (ev):

    10.0537  10.3279  10.6569  12.6356  12.6576  19.3357  22.8722  23.7073
    26.6632  48.5727

     occupation numbers 
     1.0000   1.0000   1.0000   1.0000   1.0000   0.0000   0.0000   0.0000
     0.0000   0.0000

          k = 0.0000 0.0000 0.5000 (   771 PWs)   bands (ev):

     8.8877  10.6446  11.6876  11.6876  12.4048  13.6793  31.0674  31.0674
    33.0150  33.1716

     occupation numbers 
     1.0000   1.0000   1.0000   1.0000   1.0000   0.4569   0.0000   0.0000
     0.0000   0.0000

          k = 0.0000-0.1000 0.6000 (   788 PWs)   bands (ev):

     9.4422  10.1159  11.7261  12.0478  13.0612  15.1871  26.6961  28.8354
    32.3112  34.5996

     occupation numbers 
     1.0000   1.0000   1.0000   1.0000   0.9931   0.0000   0.0000   0.0000
     0.0000   0.0000

          k = 0.0000-0.2000 0.7000 (   783 PWs)   bands (ev):

     9.4957   9.9479  11.6475  12.2068  13.6605  17.7481  22.5066  27.5187
    31.9039  37.3031

     occupation numbers 
     1.0000   1.0000   1.0000   1.0000   0.4879   0.0000   0.0000   0.0000
     0.0000   0.0000

          k =-0.1000-0.1000 0.7000 (   779 PWs)   bands (ev):

     9.5623   9.6944  11.7982  12.5698  13.3748  17.5545  25.0078  25.2534
    33.7262  34.0274

     occupation numbers 
     1.0000   1.0000   1.0000   1.0000   0.8765   0.0000   0.0000   0.0000
     0.0000   0.0000

          k =-0.1000 0.8000-0.2000 (   783 PWs)   bands (ev):

     9.4943   9.6221  11.7454  12.8376  13.5304  20.1796  21.8344  24.5466
    33.6031  36.2981

     occupation numbers 
     1.0000   1.0000   1.0000   0.9997   0.6953   0.0000   0.0000   0.0000
     0.0000   0.0000

          k = 0.5000-0.5000 0.5000 (   784 PWs)   bands (ev):

    10.3668  10.3668  10.3668  12.6581  12.6581  22.4433  22.4433  22.4433
    23.8386  53.3098

     occupation numbers 
     1.0000   1.0000   1.0000   1.0000   1.0000   0.0000   0.0000   0.0000
     0.0000   0.0000

          k = 0.0000 0.0000 0.7000 (   787 PWs)   bands (ev):

     9.3980   9.6180  12.5107  12.5107  13.1074  17.0679  26.5065  26.5065
    31.8377  32.0836

     occupation numbers 
     1.0000   1.0000   1.0000   1.0000   0.9884   0.0000   0.0000   0.0000
     0.0000   0.0000

          k = 0.0000-0.1000 0.8000 (   795 PWs)   bands (ev):

     9.2662   9.3152  12.6770  12.8641  13.5762  19.7874  23.4387  25.1057
    31.7418  33.4656

     occupation numbers 
     1.0000   1.0000   1.0000   0.9995   0.6257   0.0000   0.0000   0.0000
     0.0000   0.0000

          k =-0.1000 0.9000-0.1000 (   793 PWs)   bands (ev):

     9.1549   9.1549  12.7776  13.4687  13.4687  22.4424  22.4424  23.1574
    32.9026  32.9026

     occupation numbers 
     1.0000   1.0000   0.9999   0.7786   0.7786   0.0000   0.0000   0.0000
     0.0000   0.0000

          k = 0.0000 0.0000 0.9000 (   792 PWs)   bands (ev):

     8.9967   9.0008  13.4427  13.4427  13.5534  21.9491  23.6139  23.6139
    31.3683  31.8804

     occupation numbers 
     1.0000   1.0000   0.8094   0.8094   0.6610   0.0000   0.0000   0.0000
     0.0000   0.0000

 ------ SPIN DOWN ----------


          k = 0.0000 0.0000 0.1000 (   783 PWs)   bands (ev):

     5.4481  13.5496  13.5496  13.6191  15.4096  15.5720  38.3213  39.2540
    39.2540  42.6725

     occupation numbers 
     1.0000   0.6668   0.6668   0.5566   0.0000   0.0000   0.0000   0.0000
     0.0000   0.0000

          k = 0.0000-0.1000 0.2000 (   782 PWs)   bands (ev):

     6.2335  13.3378  13.4799  14.0444  15.1390  15.6435  35.5081  37.6182
    39.0638  41.8360

     occupation numbers 
     1.0000   0.9052   0.7645   0.0520   0.0000   0.0000   0.0000   0.0000
     0.0000   0.0000

          k = 0.0000-0.2000 0.3000 (   787 PWs)   bands (ev):

     7.6731  12.9796  13.2246  14.8362  15.0345  15.7169  30.7837  35.2205
    37.5115  41.1363

     occupation numbers 
     1.0000   0.9975   0.9627   0.0000   0.0000   0.0000   0.0000   0.0000
     0.0000   0.0000

          k = 0.0000-0.3000 0.4000 (   792 PWs)   bands (ev):

     9.3424  12.6386  13.0787  15.1801  15.7485  15.8186  26.2573  33.3251
    35.1477  40.9977

     occupation numbers 
     1.0000   1.0000   0.9915   0.0000   0.0000   0.0000   0.0000   0.0000
     0.0000   0.0000

          k = 0.0000-0.4000 0.5000 (   794 PWs)   bands (ev):

    10.3089  12.4359  13.5479  15.3023  16.0363  16.3972  23.0645  32.2953
    33.6357  41.0364

     occupation numbers 
     1.0000   1.0000   0.6693   0.0000   0.0000   0.0000   0.0000   0.0000
     0.0000   0.0000

          k =-0.1000 0.1000 0.1000 (   785 PWs)   bands (ev):

     5.8452  13.4072  13.4072  13.9554  15.4509  15.4509  37.2935  37.2935
    39.7605  41.4691

     occupation numbers 
     1.0000   0.8469   0.8469   0.1045   0.0000   0.0000   0.0000   0.0000
     0.0000   0.0000

          k =-0.1000-0.1000 0.3000 (   782 PWs)   bands (ev):

     7.3393  13.2106  13.2492  14.6129  14.8408  15.7866  33.2340  33.8746
    39.0951  39.1112

     occupation numbers 
     1.0000   0.9672   0.9535   0.0000   0.0000   0.0000   0.0000   0.0000
     0.0000   0.0000

          k =-0.1000-0.2000 0.4000 (   792 PWs)   bands (ev):

     8.9237  12.8279  12.9888  14.8681  15.4841  15.9705  28.7197  31.6530
    36.3714  39.9087

     occupation numbers 
     1.0000   0.9997   0.9971   0.0000   0.0000   0.0000   0.0000   0.0000
     0.0000   0.0000

          k =-0.1000-0.3000 0.5000 (   788 PWs)   bands (ev):

    10.3204  12.5769  12.9101  15.0984  15.8979  16.8105  24.5835  30.2496
    34.5526  40.7376

     occupation numbers 
     1.0000   1.0000   0.9990   0.0000   0.0000   0.0000   0.0000   0.0000
     0.0000   0.0000

          k =-0.1000 0.6000-0.4000 (   789 PWs)   bands (ev):

    10.7477  12.5198  13.0797  15.1754  16.0784  17.5693  22.5538  29.7111
    33.9136  41.0881

     occupation numbers 
     1.0000   1.0000   0.9915   0.0000   0.0000   0.0000   0.0000   0.0000
     0.0000   0.0000

          k =-0.2000 0.2000 0.1000 (   784 PWs)   bands (ev):

     6.9798  13.0665  13.1955  14.6402  15.2724  15.5449  33.1794  35.2649
    37.8461  40.4949

     occupation numbers 
     1.0000   0.9927   0.9715   0.0000   0.0000   0.0000   0.0000   0.0000
     0.0000   0.0000

          k =-0.2000-0.2000 0.5000 (   780 PWs)   bands (ev):

    10.3667  12.4027  12.8740  14.9652  15.7730  17.0726  26.9866  27.2064
    35.8001  39.7004

     occupation numbers 
     1.0000   1.0000   0.9994   0.0000   0.0000   0.0000   0.0000   0.0000
     0.0000   0.0000

          k =-0.2000 0.7000-0.4000 (   783 PWs)   bands (ev):

    11.2910  12.3075  12.6538  15.1995  15.8104  18.8762  23.3683  26.1458
    35.1872  40.6222

     occupation numbers 
     1.0000   1.0000   1.0000   0.0000   0.0000   0.0000   0.0000   0.0000
     0.0000   0.0000

          k =-0.3000 0.3000 0.1000 (   790 PWs)   bands (ev):

     8.6161  12.6887  12.9352  15.2724  15.5749  15.6545  28.4445  33.2581
    35.2565  41.0039

     occupation numbers 
     1.0000   1.0000   0.9986   0.0000   0.0000   0.0000   0.0000   0.0000
     0.0000   0.0000

          k =-0.3000 0.2000 0.2000 (   786 PWs)   bands (ev):

     8.3501  12.7677  12.7758  15.2725  15.5595  15.6654  30.9009  31.3692
    34.4998  41.7354

     occupation numbers 
     1.0000   0.9999   0.9999   0.0000   0.0000   0.0000   0.0000   0.0000
     0.0000   0.0000

          k =-0.3000 0.7000-0.3000 (   784 PWs)   bands (ev):

    12.0278  12.1721  12.1721  15.5284  15.5284  21.6393  21.6393  23.9526
    35.5081  41.7707

     occupation numbers 
     1.0000   1.0000   1.0000   0.0000   0.0000   0.0000   0.0000   0.0000
     0.0000   0.0000

          k =-0.4000 0.4000 0.1000 (   786 PWs)   bands (ev):

    10.0492  12.4072  13.1309  15.3772  15.7500  16.5215  24.4146  31.8646
    33.3859  41.2451

     occupation numbers 
     1.0000   1.0000   0.9851   0.0000   0.0000   0.0000   0.0000   0.0000
     0.0000   0.0000

          k =-0.4000 0.3000 0.2000 (   788 PWs)   bands (ev):

     9.9494  12.4137  12.5930  15.3457  15.7473  16.7800  26.5961  29.5056
    32.6632  42.5329

     occupation numbers 
     1.0000   1.0000   1.0000   0.0000   0.0000   0.0000   0.0000   0.0000
     0.0000   0.0000

          k = 0.5000-0.5000 0.1000 (   786 PWs)   bands (ev):

    10.4765  12.3043  13.6211  15.4222  15.7896  17.0296  22.5531  31.3694
    32.6698  41.3141

     occupation numbers 
     1.0000   1.0000   0.5533   0.0000   0.0000   0.0000   0.0000   0.0000
     0.0000   0.0000

          k = 0.5000-0.6000 0.2000 (   788 PWs)   bands (ev):

    10.8452  12.2561  12.8600  15.4567  15.8053  18.0561  23.1781  28.5571
    31.6902  42.8693

     occupation numbers 
     1.0000   1.0000   0.9995   0.0000   0.0000   0.0000   0.0000   0.0000
     0.0000   0.0000

          k = 0.5000-0.7000 0.3000 (   782 PWs)   bands (ev):

    11.1601  12.1515  12.4505  15.4582  15.7813  18.5179  25.0400  25.5887
    31.6309  43.7703

     occupation numbers 
     1.0000   1.0000   1.0000   0.0000   0.0000   0.0000   0.0000   0.0000
     0.0000   0.0000

          k = 0.4000-0.6000 0.3000 (   788 PWs)   bands (ev):

    11.5442  12.1619  12.4220  15.5652  15.7450  20.2478  22.5563  24.9436
    31.3069  44.4561

     occupation numbers 
     1.0000   1.0000   1.0000   0.0000   0.0000   0.0000   0.0000   0.0000
     0.0000   0.0000

          k = 0.0000 0.0000 0.3000 (   771 PWs)   bands (ev):

     6.9849  13.5600  13.5600  14.0730  14.5477  15.8626  35.3167  36.9270
    36.9270  37.0684

     occupation numbers 
     1.0000   0.6510   0.6510   0.0405   0.0001   0.0000   0.0000   0.0000
     0.0000   0.0000

          k = 0.0000-0.1000 0.4000 (   787 PWs)   bands (ev):

     8.3442  13.3357  13.3837  14.3067  14.7441  16.0292  31.3993  34.4472
    34.5171  37.8759

     occupation numbers 
     1.0000   0.9066   0.8688   0.0033   0.0000   0.0000   0.0000   0.0000
     0.0000   0.0000

          k = 0.0000-0.2000 0.5000 (   788 PWs)   bands (ev):

     9.8950  12.8177  13.1051  14.6552  15.6632  16.3775  26.7231  32.3571
    33.1252  39.7241

     occupation numbers 
     1.0000   0.9997   0.9887   0.0000   0.0000   0.0000   0.0000   0.0000
     0.0000   0.0000

          k = 0.0000-0.3000 0.6000 (   790 PWs)   bands (ev):

    10.8190  12.6994  12.9311  14.8271  16.3359  17.3869  23.1977  31.0189
    32.4036  42.0756

     occupation numbers 
     1.0000   1.0000   0.9987   0.0000   0.0000   0.0000   0.0000   0.0000
     0.0000   0.0000

          k =-0.1000-0.1000 0.5000 (   788 PWs)   bands (ev):

     9.7267  12.8279  13.4428  14.3403  15.3688  16.4180  29.4861  29.5341
    36.0550  36.0884

     occupation numbers 
     1.0000   0.9997   0.8093   0.0021   0.0000   0.0000   0.0000   0.0000
     0.0000   0.0000

          k =-0.1000-0.2000 0.6000 (   783 PWs)   bands (ev):

    10.9385  12.3389  13.2403  14.7177  15.8919  17.6909  25.1277  28.0621
    34.8366  38.3584

     occupation numbers 
     1.0000   1.0000   0.9570   0.0000   0.0000   0.0000   0.0000   0.0000
     0.0000   0.0000

          k =-0.1000 0.7000-0.3000 (   784 PWs)   bands (ev):

    11.3651  12.2632  13.0643  14.8383  16.1531  19.1487  22.6087  27.4850
    34.4112  40.6792

     occupation numbers 
     1.0000   1.0000   0.9928   0.0000   0.0000   0.0000   0.0000   0.0000
     0.0000   0.0000

          k =-0.2000 0.8000-0.3000 (   785 PWs)   bands (ev):

    11.7541  11.9873  12.9158  15.2136  15.7807  20.1333  23.6182  24.5610
    37.5455  37.5807

     occupation numbers 
     1.0000   1.0000   0.9989   0.0000   0.0000   0.0000   0.0000   0.0000
     0.0000   0.0000

          k =-0.3000 0.3000 0.3000 (   790 PWs)   bands (ev):

     9.8091  12.3853  12.3853  15.5884  15.5884  16.8201  29.0888  29.0888
    29.8424  44.1480

     occupation numbers 
     1.0000   1.0000   1.0000   0.0000   0.0000   0.0000   0.0000   0.0000
     0.0000   0.0000

          k = 0.6000-0.6000 0.3000 (   789 PWs)   bands (ev):

    11.0947  12.1557  12.2780  15.6262  15.7622  18.3745  25.0754  27.9404
    28.2551  45.7867

     occupation numbers 
     1.0000   1.0000   1.0000   0.0000   0.0000   0.0000   0.0000   0.0000
     0.0000   0.0000

          k = 0.5000-0.5000 0.3000 (   786 PWs)   bands (ev):

    11.3834  12.0807  12.5495  15.6572  15.8157  19.7364  22.6768  27.5461
    27.7580  46.2154

     occupation numbers 
     1.0000   1.0000   1.0000   0.0000   0.0000   0.0000   0.0000   0.0000
     0.0000   0.0000

          k = 0.5000-0.6000 0.4000 (   789 PWs)   bands (ev):

    11.7717  12.0546  12.1802  15.7442  15.8045  20.6129  23.8051  24.6397
    27.3764  48.2992

     occupation numbers 
     1.0000   1.0000   1.0000   0.0000   0.0000   0.0000   0.0000   0.0000
     0.0000   0.0000

          k = 0.0000 0.0000 0.5000 (   771 PWs)   bands (ev):

     9.4867  13.1945  13.8968  13.8968  14.8307  16.3572  31.7815  31.7815
    33.4014  33.7377

     occupation numbers 
     1.0000   0.9718   0.1556   0.1556   0.0000   0.0000   0.0000   0.0000
     0.0000   0.0000

          k = 0.0000-0.1000 0.6000 (   788 PWs)   bands (ev):

    10.6492  12.4491  13.9415  14.3568  15.5504  17.1421  27.5107  29.5202
    32.8704  35.0978

     occupation numbers 
     1.0000   1.0000   0.1154   0.0017   0.0000   0.0000   0.0000   0.0000
     0.0000   0.0000

          k = 0.0000-0.2000 0.7000 (   783 PWs)   bands (ev):

    11.3558  11.9706  13.8544  14.5680  16.2378  19.0145  23.5714  28.1431
    32.5062  37.6399

     occupation numbers 
     1.0000   1.0000   0.2015   0.0001   0.0000   0.0000   0.0000   0.0000
     0.0000   0.0000

          k =-0.1000-0.1000 0.7000 (   779 PWs)   bands (ev):

    11.2936  11.9192  13.9990  14.9212  15.9057  18.8870  25.8163  26.0072
    34.1876  34.6607

     occupation numbers 
     1.0000   1.0000   0.0753   0.0000   0.0000   0.0000   0.0000   0.0000
     0.0000   0.0000

          k =-0.1000 0.8000-0.2000 (   783 PWs)   bands (ev):

    11.5836  11.6416  13.9028  15.2426  16.0749  21.1411  22.8460  25.2799
    34.1415  36.5810

     occupation numbers 
     1.0000   1.0000   0.1497   0.0000   0.0000   0.0000   0.0000   0.0000
     0.0000   0.0000

          k = 0.5000-0.5000 0.5000 (   784 PWs)   bands (ev):

    12.0365  12.0365  12.0365  15.8320  15.8320  23.3826  23.3826  23.3826
    24.7791  52.9226

     occupation numbers 
     1.0000   1.0000   1.0000   0.0000   0.0000   0.0000   0.0000   0.0000
     0.0000   0.0000

          k = 0.0000 0.0000 0.7000 (   787 PWs)   bands (ev):

    11.1020  11.9117  14.7989  14.7989  15.6188  18.3905  27.1297  27.1297
    32.5004  32.8586

     occupation numbers 
     1.0000   1.0000   0.0000   0.0000   0.0000   0.0000   0.0000   0.0000
     0.0000   0.0000

          k = 0.0000-0.1000 0.8000 (   795 PWs)   bands (ev):

    11.2846  11.4840  15.0239  15.2108  16.1426  20.6668  24.1408  25.6348
    32.4992  34.1034

     occupation numbers 
     1.0000   1.0000   0.0000   0.0000   0.0000   0.0000   0.0000   0.0000
     0.0000   0.0000

          k =-0.1000 0.9000-0.1000 (   793 PWs)   bands (ev):

    11.2762  11.2762  15.1187  15.9895  15.9895  23.0571  23.0571  23.7713
    33.4909  33.4909

     occupation numbers 
     1.0000   1.0000   0.0000   0.0000   0.0000   0.0000   0.0000   0.0000
     0.0000   0.0000

          k = 0.0000 0.0000 0.9000 (   792 PWs)   bands (ev):

    11.1062  11.1574  15.9548  15.9548  16.1217  22.4538  23.9965  23.9965
    32.1770  32.6897

     occupation numbers 
     1.0000   1.0000   0.0000   0.0000   0.0000   0.0000   0.0000   0.0000
     0.0000   0.0000

     the Fermi energy is    13.6533 ev

     Writing output data file Fe_nscf_e70_k10_nb10.save

     init_run     :      0.21s CPU      0.41s WALL (       1 calls)
     electrons    :     12.34s CPU      7.20s WALL (       1 calls)

     Called by init_run:
     wfcinit      :      0.00s CPU      0.00s WALL (       1 calls)
     potinit      :      0.04s CPU      0.04s WALL (       1 calls)

     Called by electrons:
     c_bands      :     12.32s CPU      7.18s WALL (       1 calls)
     v_of_rho     :      0.04s CPU      0.04s WALL (       1 calls)
     v_h          :      0.00s CPU      0.00s WALL (       1 calls)
     v_xc         :      0.04s CPU      0.04s WALL (       1 calls)

     Called by c_bands:
     init_us_2    :      0.05s CPU      0.03s WALL (      88 calls)
     cegterg      :     11.06s CPU      6.46s WALL (      88 calls)

     Called by sum_band:

     Called by *egterg:
     h_psi        :      9.92s CPU      5.76s WALL (    1365 calls)
     g_psi        :      0.04s CPU      0.04s WALL (    1189 calls)
     cdiaghg      :      1.07s CPU      0.61s WALL (    1277 calls)
     cegterg:over :      0.39s CPU      0.24s WALL (    1189 calls)
     cegterg:upda :      0.36s CPU      0.24s WALL (    1189 calls)
     cegterg:last :      0.20s CPU      0.12s WALL (     266 calls)

     Called by h_psi:
     h_psi:vloc   :      9.65s CPU      5.58s WALL (    1365 calls)
     h_psi:vnl    :      0.21s CPU      0.14s WALL (    1365 calls)
     add_vuspsi   :      0.12s CPU      0.07s WALL (    1365 calls)

     General routines
     calbec       :      0.07s CPU      0.06s WALL (    1365 calls)
     fft          :      0.00s CPU      0.01s WALL (      19 calls)
     fftw         :      8.84s CPU      5.17s WALL (   16804 calls)

     Parallel routines
     fft_scatter  :      0.45s CPU      0.27s WALL (   16823 calls)

     PWSCF        :    13.08s CPU         8.07s WALL


   This run was terminated on:  13:33:56  14Sep2017            

=------------------------------------------------------------------------------=
   JOB DONE.
=------------------------------------------------------------------------------=
