
     Program PWSCF v.5.0.2 (svn rev. 9656) starts on 30Jun2015 at 23:44:59 

     This program is part of the open-source Quantum ESPRESSO suite
     for quantum simulation of materials; please cite
         "P. Giannozzi et al., J. Phys.:Condens. Matter 21 395502 (2009);
          URL http://www.quantum-espresso.org", 
     in publications or presentations arising from this work. More details at
     http://www.quantum-espresso.org/quote.php

     Parallel version (MPI), running on     1 processors

     Current dimensions of program PWSCF are:
     Max number of different atomic species (ntypx) = 10
     Max number of k-points (npk) =  40000
     Max angular momentum in pseudopotentials (lmaxx) =  3
     Waiting for input...
     Reading input from standard input

     Atomic positions and unit cell read from directory:
     ./Fe_nscf_e70_k10s1_nb20_so.save/


     Fixed quantization axis for GGA:     0.000000    0.000000    1.000000

     Subspace diagonalization in iterative solution of the eigenvalue problem:
     a serial algorithm will be used


     G-vector sticks info
     --------------------
     sticks:   dense  smooth     PW     G-vecs:    dense   smooth      PW
     Sum         467     467    151                 6363     6363    1157

     Generating pointlists ...
     new r_m :   0.3572 (alat units)  1.9362 (a.u.) for type    1


     bravais-lattice index     =            3
     lattice parameter (alat)  =       5.4200  a.u.
     unit-cell volume          =      79.6100 (a.u.)^3
     number of atoms/cell      =            1
     number of atomic types    =            1
     number of electrons       =         8.00
     number of Kohn-Sham states=           20
     kinetic-energy cutoff     =      70.0000  Ry
     charge density cutoff     =     280.0000  Ry
     Exchange-correlation      = PBE ( 1 4 3 4 0)
     EXX-fraction              =        0.00
     Noncollinear calculation with spin-orbit


     celldm(1)=   5.420000  celldm(2)=   0.000000  celldm(3)=   0.000000
     celldm(4)=   0.000000  celldm(5)=   0.000000  celldm(6)=   0.000000

     crystal axes: (cart. coord. in units of alat)
               a(1) = (   0.500000   0.500000   0.500000 )  
               a(2) = (  -0.500000   0.500000   0.500000 )  
               a(3) = (  -0.500000  -0.500000   0.500000 )  

     reciprocal axes: (cart. coord. in units 2 pi/alat)
               b(1) = (  1.000000  0.000000  1.000000 )  
               b(2) = ( -1.000000  1.000000  0.000000 )  
               b(3) = (  0.000000 -1.000000  1.000000 )  


     PseudoPot. # 1 for Fe read from file:
     ./Fe.rel-pbe-n-nc.UPF
     MD5 check sum: 94258d60e67ccf79570366bad73e55f4
     Pseudo is Norm-conserving + core correction, Zval =  8.0
     Generated using "atomic" code by A. Dal Corso  v.5.0.2 svn rev. 10042M
     Using radial grid of 1191 points,  4 beta functions with: 
                l(1) =   1
                l(2) =   1
                l(3) =   2
                l(4) =   2

     atomic species   valence    mass     pseudopotential
        Fe             8.00    55.84500     Fe( 1.00)

     16 Sym. Ops., with inversion, found


                                    s                        frac. trans.

      isym =  1     identity                                     

 Time Reversal            0
 cryst.   s( 1) = (     1          0          0      )
                  (     0          1          0      )
                  (     0          0          1      )

 cart.    s( 1) = (  1.0000000  0.0000000  0.0000000 )
                  (  0.0000000  1.0000000  0.0000000 )
                  (  0.0000000  0.0000000  1.0000000 )


      isym =  2     180 deg rotation - cart. axis [0,0,1]        

 Time Reversal            0
 cryst.   s( 2) = (     0          0          1      )
                  (     1         -1          1      )
                  (     1          0          0      )

 cart.    s( 2) = ( -1.0000000  0.0000000  0.0000000 )
                  (  0.0000000 -1.0000000  0.0000000 )
                  (  0.0000000  0.0000000  1.0000000 )


      isym =  3     180 deg rotation - cart. axis [0,1,0]        

 Time Reversal            1
 cryst.   s( 3) = (    -1          1         -1      )
                  (     0          0         -1      )
                  (     0         -1          0      )

 cart.    s( 3) = ( -1.0000000  0.0000000  0.0000000 )
                  (  0.0000000  1.0000000  0.0000000 )
                  (  0.0000000  0.0000000 -1.0000000 )


      isym =  4     180 deg rotation - cart. axis [1,0,0]        

 Time Reversal            1
 cryst.   s( 4) = (     0         -1          0      )
                  (    -1          0          0      )
                  (    -1          1         -1      )

 cart.    s( 4) = (  1.0000000  0.0000000  0.0000000 )
                  (  0.0000000 -1.0000000  0.0000000 )
                  (  0.0000000  0.0000000 -1.0000000 )


      isym =  5     180 deg rotation - cart. axis [1,1,0]        

 Time Reversal            1
 cryst.   s( 5) = (     0          0         -1      )
                  (     0         -1          0      )
                  (    -1          0          0      )

 cart.    s( 5) = (  0.0000000  1.0000000  0.0000000 )
                  (  1.0000000  0.0000000  0.0000000 )
                  (  0.0000000  0.0000000 -1.0000000 )


      isym =  6     180 deg rotation - cart. axis [1,-1,0]       

 Time Reversal            1
 cryst.   s( 6) = (    -1          0          0      )
                  (    -1          1         -1      )
                  (     0          0         -1      )

 cart.    s( 6) = (  0.0000000 -1.0000000  0.0000000 )
                  ( -1.0000000  0.0000000  0.0000000 )
                  (  0.0000000  0.0000000 -1.0000000 )


      isym =  7      90 deg rotation - cart. axis [0,0,-1]       

 Time Reversal            0
 cryst.   s( 7) = (     1         -1          1      )
                  (     1          0          0      )
                  (     0          1          0      )

 cart.    s( 7) = (  0.0000000  1.0000000  0.0000000 )
                  ( -1.0000000  0.0000000  0.0000000 )
                  (  0.0000000  0.0000000  1.0000000 )


      isym =  8      90 deg rotation - cart. axis [0,0,1]        

 Time Reversal            0
 cryst.   s( 8) = (     0          1          0      )
                  (     0          0          1      )
                  (     1         -1          1      )

 cart.    s( 8) = (  0.0000000 -1.0000000  0.0000000 )
                  (  1.0000000  0.0000000  0.0000000 )
                  (  0.0000000  0.0000000  1.0000000 )


      isym =  9     inversion                                    

 Time Reversal            0
 cryst.   s( 9) = (    -1          0          0      )
                  (     0         -1          0      )
                  (     0          0         -1      )

 cart.    s( 9) = ( -1.0000000  0.0000000  0.0000000 )
                  (  0.0000000 -1.0000000  0.0000000 )
                  (  0.0000000  0.0000000 -1.0000000 )


      isym = 10     inv. 180 deg rotation - cart. axis [0,0,1]   

 Time Reversal            0
 cryst.   s(10) = (     0          0         -1      )
                  (    -1          1         -1      )
                  (    -1          0          0      )

 cart.    s(10) = (  1.0000000  0.0000000  0.0000000 )
                  (  0.0000000  1.0000000  0.0000000 )
                  (  0.0000000  0.0000000 -1.0000000 )


      isym = 11     inv. 180 deg rotation - cart. axis [0,1,0]   

 Time Reversal            1
 cryst.   s(11) = (     1         -1          1      )
                  (     0          0          1      )
                  (     0          1          0      )

 cart.    s(11) = (  1.0000000  0.0000000  0.0000000 )
                  (  0.0000000 -1.0000000  0.0000000 )
                  (  0.0000000  0.0000000  1.0000000 )


      isym = 12     inv. 180 deg rotation - cart. axis [1,0,0]   

 Time Reversal            1
 cryst.   s(12) = (     0          1          0      )
                  (     1          0          0      )
                  (     1         -1          1      )

 cart.    s(12) = ( -1.0000000  0.0000000  0.0000000 )
                  (  0.0000000  1.0000000  0.0000000 )
                  (  0.0000000  0.0000000  1.0000000 )


      isym = 13     inv. 180 deg rotation - cart. axis [1,1,0]   

 Time Reversal            1
 cryst.   s(13) = (     0          0          1      )
                  (     0          1          0      )
                  (     1          0          0      )

 cart.    s(13) = (  0.0000000 -1.0000000  0.0000000 )
                  ( -1.0000000  0.0000000  0.0000000 )
                  (  0.0000000  0.0000000  1.0000000 )


      isym = 14     inv. 180 deg rotation - cart. axis [1,-1,0]  

 Time Reversal            1
 cryst.   s(14) = (     1          0          0      )
                  (     1         -1          1      )
                  (     0          0          1      )

 cart.    s(14) = (  0.0000000  1.0000000  0.0000000 )
                  (  1.0000000  0.0000000  0.0000000 )
                  (  0.0000000  0.0000000  1.0000000 )


      isym = 15     inv.  90 deg rotation - cart. axis [0,0,-1]  

 Time Reversal            0
 cryst.   s(15) = (    -1          1         -1      )
                  (    -1          0          0      )
                  (     0         -1          0      )

 cart.    s(15) = (  0.0000000 -1.0000000  0.0000000 )
                  (  1.0000000  0.0000000  0.0000000 )
                  (  0.0000000  0.0000000 -1.0000000 )


      isym = 16     inv.  90 deg rotation - cart. axis [0,0,1]   

 Time Reversal            0
 cryst.   s(16) = (     0         -1          0      )
                  (     0          0         -1      )
                  (    -1          1         -1      )

 cart.    s(16) = (  0.0000000  1.0000000  0.0000000 )
                  ( -1.0000000  0.0000000  0.0000000 )
                  (  0.0000000  0.0000000 -1.0000000 )


     the magnetic double point group is D_4h(4/mmm) [C_4h (4/m) ]
     using the double point group C_4h (4/m) 
     there are 16 classes and  8 irreducible representations
     the character table:

       E     -E    C4    -C4   C4^2  -C4^2 C4^3  -C4^3 i     -i    S4^3  -S4^3
                                                                              
G_5+   1.00 -1.00  0.71 -0.71  0.00  0.00  0.71 -0.71  1.00 -1.00  0.71 -0.71
G_6+   1.00 -1.00  0.71 -0.71  0.00  0.00  0.71 -0.71  1.00 -1.00  0.71 -0.71
G_7+   1.00 -1.00 -0.71  0.71  0.00  0.00 -0.71  0.71  1.00 -1.00 -0.71  0.71
G_8+   1.00 -1.00 -0.71  0.71  0.00  0.00 -0.71  0.71  1.00 -1.00 -0.71  0.71
G_5-   1.00 -1.00  0.71 -0.71  0.00  0.00  0.71 -0.71 -1.00  1.00 -0.71  0.71
G_6-   1.00 -1.00  0.71 -0.71  0.00  0.00  0.71 -0.71 -1.00  1.00 -0.71  0.71
G_7-   1.00 -1.00 -0.71  0.71  0.00  0.00 -0.71  0.71 -1.00  1.00  0.71 -0.71
G_8-   1.00 -1.00 -0.71  0.71  0.00  0.00 -0.71  0.71 -1.00  1.00  0.71 -0.71

       s_h   -s_h  S4    -S4  
                              
G_5+   0.00  0.00  0.71 -0.71
G_6+   0.00  0.00  0.71 -0.71
G_7+   0.00  0.00 -0.71  0.71
G_8+   0.00  0.00 -0.71  0.71
G_5-   0.00  0.00 -0.71  0.71
G_6-   0.00  0.00 -0.71  0.71
G_7-   0.00  0.00  0.71 -0.71
G_8-   0.00  0.00  0.71 -0.71

     imaginary part

       E     -E    C4    -C4   C4^2  -C4^2 C4^3  -C4^3 i     -i    S4^3  -S4^3
                                                                              
G_5+   0.00  0.00  0.71 -0.71  1.00 -1.00 -0.71  0.71  0.00  0.00  0.71 -0.71
G_6+   0.00  0.00 -0.71  0.71 -1.00  1.00  0.71 -0.71  0.00  0.00 -0.71  0.71
G_7+   0.00  0.00 -0.71  0.71  1.00 -1.00  0.71 -0.71  0.00  0.00 -0.71  0.71
G_8+   0.00  0.00  0.71 -0.71 -1.00  1.00 -0.71  0.71  0.00  0.00  0.71 -0.71
G_5-   0.00  0.00  0.71 -0.71  1.00 -1.00 -0.71  0.71  0.00  0.00 -0.71  0.71
G_6-   0.00  0.00 -0.71  0.71 -1.00  1.00  0.71 -0.71  0.00  0.00  0.71 -0.71
G_7-   0.00  0.00 -0.71  0.71  1.00 -1.00  0.71 -0.71  0.00  0.00  0.71 -0.71
G_8-   0.00  0.00  0.71 -0.71 -1.00  1.00 -0.71  0.71  0.00  0.00 -0.71  0.71

       s_h   -s_h  S4    -S4  
                              
G_5+   1.00 -1.00 -0.71  0.71
G_6+  -1.00  1.00  0.71 -0.71
G_7+   1.00 -1.00  0.71 -0.71
G_8+  -1.00  1.00 -0.71  0.71
G_5-  -1.00  1.00  0.71 -0.71
G_6-   1.00 -1.00 -0.71  0.71
G_7-  -1.00  1.00 -0.71  0.71
G_8-   1.00 -1.00  0.71 -0.71

     the symmetry operations in each class:
     E             1
     C4^2          2
     C4^3          3
     C4            4
     i             5
     s_h           6
     S4            7
     S4^3          8
     -E           -1
     -C4^2        -2
     -C4^3        -3
     -C4          -4
     -i           -5
     -s_h         -6
     -S4          -7
     -S4^3        -8

   Cartesian axes

     site n.     atom                  positions (alat units)
         1           Fe  tau(   1) = (   0.0000000   0.0000000   0.0000000  )

   Crystallographic axes

     site n.     atom                  positions (cryst. coord.)
         1           Fe  tau(   1) = (  0.0000000  0.0000000  0.0000000  )

     number of k points=    99
                       cart. coord. in units 2pi/alat
        k(    1) = (   0.0000431   0.0000000   0.1000000), wk =   0.0101010
        k(    2) = (   0.0000431  -0.1000000   0.2000000), wk =   0.0101010
        k(    3) = (   0.0000431  -0.2000000   0.3000000), wk =   0.0101010
        k(    4) = (   0.0000431  -0.3000000   0.4000000), wk =   0.0101010
        k(    5) = (   0.0000431  -0.4000000   0.5000000), wk =   0.0101010
        k(    6) = (  -0.0999569   0.1000000   0.1000000), wk =   0.0101010
        k(    7) = (  -0.0999569  -0.1000000   0.3000000), wk =   0.0101010
        k(    8) = (  -0.0999569  -0.2000000   0.4000000), wk =   0.0101010
        k(    9) = (  -0.0999569  -0.3000000   0.5000000), wk =   0.0101010
        k(   10) = (  -0.0999569   0.6000000  -0.4000000), wk =   0.0101010
        k(   11) = (  -0.1999569   0.2000000   0.1000000), wk =   0.0101010
        k(   12) = (  -0.1999569  -0.2000000   0.5000000), wk =   0.0101010
        k(   13) = (  -0.1999569   0.7000000  -0.4000000), wk =   0.0101010
        k(   14) = (  -0.2999569   0.3000000   0.1000000), wk =   0.0101010
        k(   15) = (  -0.2999569   0.2000000   0.2000000), wk =   0.0101010
        k(   16) = (  -0.2999569   0.7000000  -0.3000000), wk =   0.0101010
        k(   17) = (  -0.3999569   0.4000000   0.1000000), wk =   0.0101010
        k(   18) = (  -0.3999569   0.3000000   0.2000000), wk =   0.0101010
        k(   19) = (   0.5000432  -0.5000000   0.1000000), wk =   0.0101010
        k(   20) = (   0.5000432  -0.6000000   0.2000000), wk =   0.0101010
        k(   21) = (   0.5000432  -0.7000000   0.3000000), wk =   0.0101010
        k(   22) = (   0.4000431  -0.6000000   0.3000000), wk =   0.0101010
        k(   23) = (   0.0000431   0.0000000   0.3000000), wk =   0.0101010
        k(   24) = (   0.0000431  -0.1000000   0.4000000), wk =   0.0101010
        k(   25) = (   0.0000431  -0.2000000   0.5000000), wk =   0.0101010
        k(   26) = (   0.0000431  -0.3000000   0.6000000), wk =   0.0101010
        k(   27) = (  -0.0999569  -0.1000000   0.5000000), wk =   0.0101010
        k(   28) = (  -0.0999569  -0.2000000   0.6000000), wk =   0.0101010
        k(   29) = (  -0.0999569   0.7000000  -0.3000000), wk =   0.0101010
        k(   30) = (  -0.1999569   0.8000000  -0.3000000), wk =   0.0101010
        k(   31) = (  -0.2999569   0.3000000   0.3000000), wk =   0.0101010
        k(   32) = (   0.6000432  -0.6000000   0.3000000), wk =   0.0101010
        k(   33) = (   0.5000432  -0.5000000   0.3000000), wk =   0.0101010
        k(   34) = (   0.5000432  -0.6000000   0.4000000), wk =   0.0101010
        k(   35) = (   0.0000431   0.0000000   0.5000000), wk =   0.0101010
        k(   36) = (   0.0000431  -0.1000000   0.6000000), wk =   0.0101010
        k(   37) = (   0.0000431  -0.2000000   0.7000000), wk =   0.0101010
        k(   38) = (  -0.0999569  -0.1000000   0.7000000), wk =   0.0101010
        k(   39) = (  -0.0999569   0.8000000  -0.2000000), wk =   0.0101010
        k(   40) = (   0.5000432  -0.5000000   0.5000000), wk =   0.0101010
        k(   41) = (   0.0000431   0.0000000   0.7000000), wk =   0.0101010
        k(   42) = (   0.0000431  -0.1000000   0.8000000), wk =   0.0101010
        k(   43) = (  -0.0999569   0.9000000  -0.1000000), wk =   0.0101010
        k(   44) = (   0.0000431   0.0000000   0.9000000), wk =   0.0101010
        k(   45) = (   0.0000431   0.1000000   0.0000000), wk =   0.0101010
        k(   46) = (  -0.0999569   0.2000000   0.0000000), wk =   0.0101010
        k(   47) = (   0.2000431   0.0000000  -0.1000000), wk =   0.0101010
        k(   48) = (  -0.1999569   0.3000000   0.0000000), wk =   0.0101010
        k(   49) = (   0.3000431   0.0000000  -0.2000000), wk =   0.0101010
        k(   50) = (  -0.2999569   0.4000000   0.0000000), wk =   0.0101010
        k(   51) = (   0.4000431   0.0000000  -0.3000000), wk =   0.0101010
        k(   52) = (  -0.3999569   0.5000000   0.0000000), wk =   0.0101010
        k(   53) = (   0.5000432   0.0000000  -0.4000000), wk =   0.0101010
        k(   54) = (  -0.0999569   0.3000000  -0.1000000), wk =   0.0101010
        k(   55) = (  -0.1999569   0.4000000  -0.1000000), wk =   0.0101010
        k(   56) = (   0.4000431  -0.1000000  -0.2000000), wk =   0.0101010
        k(   57) = (  -0.2999569   0.5000000  -0.1000000), wk =   0.0101010
        k(   58) = (   0.5000432  -0.1000000  -0.3000000), wk =   0.0101010
        k(   59) = (   0.6000432  -0.4000000  -0.1000000), wk =   0.0101010
        k(   60) = (   0.2000431   0.1000000  -0.2000000), wk =   0.0101010
        k(   61) = (  -0.1999569   0.5000000  -0.2000000), wk =   0.0101010
        k(   62) = (   0.7000432  -0.4000000  -0.2000000), wk =   0.0101010
        k(   63) = (  -0.3999569  -0.2000000   0.7000000), wk =   0.0101010
        k(   64) = (   0.3000431   0.1000000  -0.3000000), wk =   0.0101010
        k(   65) = (   0.2000431   0.2000000  -0.3000000), wk =   0.0101010
        k(   66) = (   0.4000431   0.1000000  -0.4000000), wk =   0.0101010
        k(   67) = (   0.3000431   0.2000000  -0.4000000), wk =   0.0101010
        k(   68) = (   0.2000431  -0.4000000   0.3000000), wk =   0.0101010
        k(   69) = (  -0.4999568   0.1000000   0.5000000), wk =   0.0101010
        k(   70) = (  -0.5999569   0.2000000   0.5000000), wk =   0.0101010
        k(   71) = (   0.2000431   0.5000000  -0.6000000), wk =   0.0101010
        k(   72) = (  -0.6999568   0.3000000   0.5000000), wk =   0.0101010
        k(   73) = (  -0.5999569   0.3000000   0.4000000), wk =   0.0101010
        k(   74) = (   0.0000431   0.3000000   0.0000000), wk =   0.0101010
        k(   75) = (  -0.0999569   0.4000000   0.0000000), wk =   0.0101010
        k(   76) = (   0.4000431   0.0000000  -0.1000000), wk =   0.0101010
        k(   77) = (  -0.1999569   0.5000000   0.0000000), wk =   0.0101010
        k(   78) = (   0.5000432   0.0000000  -0.2000000), wk =   0.0101010
        k(   79) = (  -0.2999569   0.6000000   0.0000000), wk =   0.0101010
        k(   80) = (   0.6000432   0.0000000  -0.3000000), wk =   0.0101010
        k(   81) = (  -0.0999569   0.5000000  -0.1000000), wk =   0.0101010
        k(   82) = (  -0.1999569   0.6000000  -0.1000000), wk =   0.0101010
        k(   83) = (   0.6000432  -0.1000000  -0.2000000), wk =   0.0101010
        k(   84) = (   0.7000432  -0.3000000  -0.1000000), wk =   0.0101010
        k(   85) = (   0.8000432  -0.3000000  -0.2000000), wk =   0.0101010
        k(   86) = (  -0.5999569   0.3000000   0.6000000), wk =   0.0101010
        k(   87) = (  -0.4999568   0.3000000   0.5000000), wk =   0.0101010
        k(   88) = (  -0.5999569   0.4000000   0.5000000), wk =   0.0101010
        k(   89) = (   0.0000431   0.5000000   0.0000000), wk =   0.0101010
        k(   90) = (  -0.0999569   0.6000000   0.0000000), wk =   0.0101010
        k(   91) = (   0.6000432   0.0000000  -0.1000000), wk =   0.0101010
        k(   92) = (  -0.1999569   0.7000000   0.0000000), wk =   0.0101010
        k(   93) = (   0.7000432   0.0000000  -0.2000000), wk =   0.0101010
        k(   94) = (  -0.0999569   0.7000000  -0.1000000), wk =   0.0101010
        k(   95) = (   0.8000432  -0.2000000  -0.1000000), wk =   0.0101010
        k(   96) = (   0.0000431   0.7000000   0.0000000), wk =   0.0101010
        k(   97) = (  -0.0999569   0.8000000   0.0000000), wk =   0.0101010
        k(   98) = (   0.8000432   0.0000000  -0.1000000), wk =   0.0101010
        k(   99) = (   0.0000431   0.9000000   0.0000000), wk =   0.0101010

                       cryst. coord.
        k(    1) = (   0.0500216   0.0499785   0.0499785), wk =   0.0101010
        k(    2) = (   0.0500216   0.0499785   0.1499785), wk =   0.0101010
        k(    3) = (   0.0500215   0.0499784   0.2499785), wk =   0.0101010
        k(    4) = (   0.0500216   0.0499785   0.3499784), wk =   0.0101010
        k(    5) = (   0.0500215   0.0499784   0.4499785), wk =   0.0101010
        k(    6) = (   0.0500216   0.1499784   0.0499785), wk =   0.0101010
        k(    7) = (   0.0500215   0.1499784   0.2499784), wk =   0.0101010
        k(    8) = (   0.0500215   0.1499785   0.3499785), wk =   0.0101010
        k(    9) = (   0.0500215   0.1499785   0.4499785), wk =   0.0101010
        k(   10) = (   0.0500215   0.1499784  -0.4500215), wk =   0.0101010
        k(   11) = (   0.0500216   0.2499785   0.0499784), wk =   0.0101010
        k(   12) = (   0.0500215   0.2499784   0.4499785), wk =   0.0101010
        k(   13) = (   0.0500215   0.2499784  -0.4500215), wk =   0.0101010
        k(   14) = (   0.0500215   0.3499784   0.0499785), wk =   0.0101010
        k(   15) = (   0.0500215   0.3499785   0.1499785), wk =   0.0101010
        k(   16) = (   0.0500215   0.3499784  -0.3500215), wk =   0.0101010
        k(   17) = (   0.0500216   0.4499784   0.0499784), wk =   0.0101010
        k(   18) = (   0.0500215   0.4499785   0.1499785), wk =   0.0101010
        k(   19) = (   0.0500216  -0.4500216   0.0499784), wk =   0.0101010
        k(   20) = (   0.0500216  -0.4500216   0.1499784), wk =   0.0101010
        k(   21) = (   0.0500216  -0.4500216   0.2499784), wk =   0.0101010
        k(   22) = (   0.0500215  -0.3500216   0.2499784), wk =   0.0101010
        k(   23) = (   0.1500216   0.1499784   0.1499784), wk =   0.0101010
        k(   24) = (   0.1500216   0.1499785   0.2499785), wk =   0.0101010
        k(   25) = (   0.1500216   0.1499784   0.3499784), wk =   0.0101010
        k(   26) = (   0.1500216   0.1499784   0.4499784), wk =   0.0101010
        k(   27) = (   0.1500216   0.2499784   0.3499784), wk =   0.0101010
        k(   28) = (   0.1500215   0.2499784   0.4499785), wk =   0.0101010
        k(   29) = (   0.1500215   0.2499784  -0.4500215), wk =   0.0101010
        k(   30) = (   0.1500216   0.3499785  -0.4500215), wk =   0.0101010
        k(   31) = (   0.1500215   0.4499785   0.1499785), wk =   0.0101010
        k(   32) = (   0.1500216  -0.4500216   0.1499784), wk =   0.0101010
        k(   33) = (   0.1500216  -0.3500216   0.1499784), wk =   0.0101010
        k(   34) = (   0.1500216  -0.3500216   0.2499784), wk =   0.0101010
        k(   35) = (   0.2500215   0.2499784   0.2499784), wk =   0.0101010
        k(   36) = (   0.2500215   0.2499784   0.3499784), wk =   0.0101010
        k(   37) = (   0.2500215   0.2499784   0.4499784), wk =   0.0101010
        k(   38) = (   0.2500215   0.3499784   0.4499784), wk =   0.0101010
        k(   39) = (   0.2500216   0.3499785  -0.4500215), wk =   0.0101010
        k(   40) = (   0.2500216  -0.2500216   0.2499784), wk =   0.0101010
        k(   41) = (   0.3500215   0.3499784   0.3499784), wk =   0.0101010
        k(   42) = (   0.3500216   0.3499784   0.4499785), wk =   0.0101010
        k(   43) = (   0.3500216   0.4499785  -0.4500215), wk =   0.0101010
        k(   44) = (   0.4500215   0.4499785   0.4499785), wk =   0.0101010
        k(   45) = (   0.0500216   0.0499785  -0.0500216), wk =   0.0101010
        k(   46) = (   0.0500216   0.1499785  -0.0500216), wk =   0.0101010
        k(   47) = (   0.0500215  -0.1500216  -0.1500216), wk =   0.0101010
        k(   48) = (   0.0500215   0.2499784  -0.0500215), wk =   0.0101010
        k(   49) = (   0.0500215  -0.2500216  -0.2500216), wk =   0.0101010
        k(   50) = (   0.0500215   0.3499785  -0.0500215), wk =   0.0101010
        k(   51) = (   0.0500215  -0.3500216  -0.3500216), wk =   0.0101010
        k(   52) = (   0.0500215   0.4499785  -0.0500215), wk =   0.0101010
        k(   53) = (   0.0500216  -0.4500216  -0.4500216), wk =   0.0101010
        k(   54) = (   0.0500215   0.1499784  -0.1500216), wk =   0.0101010
        k(   55) = (   0.0500216   0.2499785  -0.1500216), wk =   0.0101010
        k(   56) = (   0.0500215  -0.3500216  -0.2500216), wk =   0.0101010
        k(   57) = (   0.0500215   0.3499784  -0.1500216), wk =   0.0101010
        k(   58) = (   0.0500216  -0.4500216  -0.3500216), wk =   0.0101010
        k(   59) = (   0.0500216  -0.5500216  -0.1500216), wk =   0.0101010
        k(   60) = (   0.0500215  -0.1500216  -0.2500216), wk =   0.0101010
        k(   61) = (   0.0500215   0.2499784  -0.2500216), wk =   0.0101010
        k(   62) = (   0.0500216  -0.6500216  -0.2500216), wk =   0.0101010
        k(   63) = (   0.0500215   0.4499784   0.6499784), wk =   0.0101010
        k(   64) = (   0.0500215  -0.2500215  -0.3500216), wk =   0.0101010
        k(   65) = (   0.0500215  -0.1500216  -0.3500216), wk =   0.0101010
        k(   66) = (   0.0500215  -0.3500216  -0.4500215), wk =   0.0101010
        k(   67) = (   0.0500216  -0.2500216  -0.4500216), wk =   0.0101010
        k(   68) = (   0.0500215  -0.1500216   0.2499785), wk =   0.0101010
        k(   69) = (   0.0500216   0.5499784   0.4499784), wk =   0.0101010
        k(   70) = (   0.0500215   0.6499784   0.4499785), wk =   0.0101010
        k(   71) = (   0.0500216  -0.1500216  -0.6500215), wk =   0.0101010
        k(   72) = (   0.0500216   0.7499784   0.4499784), wk =   0.0101010
        k(   73) = (   0.0500215   0.6499785   0.3499785), wk =   0.0101010
        k(   74) = (   0.1500216   0.1499784  -0.1500216), wk =   0.0101010
        k(   75) = (   0.1500216   0.2499785  -0.1500216), wk =   0.0101010
        k(   76) = (   0.1500216  -0.2500215  -0.2500215), wk =   0.0101010
        k(   77) = (   0.1500216   0.3499784  -0.1500216), wk =   0.0101010
        k(   78) = (   0.1500216  -0.3500216  -0.3500216), wk =   0.0101010
        k(   79) = (   0.1500215   0.4499785  -0.1500215), wk =   0.0101010
        k(   80) = (   0.1500216  -0.4500216  -0.4500216), wk =   0.0101010
        k(   81) = (   0.1500216   0.2499785  -0.2500215), wk =   0.0101010
        k(   82) = (   0.1500216   0.3499784  -0.2500215), wk =   0.0101010
        k(   83) = (   0.1500216  -0.4500216  -0.3500216), wk =   0.0101010
        k(   84) = (   0.1500216  -0.5500216  -0.2500216), wk =   0.0101010
        k(   85) = (   0.1500216  -0.6500216  -0.3500216), wk =   0.0101010
        k(   86) = (   0.1500215   0.7499784   0.4499785), wk =   0.0101010
        k(   87) = (   0.1500216   0.6499784   0.3499784), wk =   0.0101010
        k(   88) = (   0.1500216   0.7499784   0.3499784), wk =   0.0101010
        k(   89) = (   0.2500215   0.2499784  -0.2500215), wk =   0.0101010
        k(   90) = (   0.2500215   0.3499784  -0.2500215), wk =   0.0101010
        k(   91) = (   0.2500216  -0.3500216  -0.3500216), wk =   0.0101010
        k(   92) = (   0.2500215   0.4499784  -0.2500215), wk =   0.0101010
        k(   93) = (   0.2500216  -0.4500216  -0.4500216), wk =   0.0101010
        k(   94) = (   0.2500215   0.3499784  -0.3500215), wk =   0.0101010
        k(   95) = (   0.2500216  -0.5500216  -0.3500216), wk =   0.0101010
        k(   96) = (   0.3500215   0.3499784  -0.3500215), wk =   0.0101010
        k(   97) = (   0.3500216   0.4499785  -0.3500216), wk =   0.0101010
        k(   98) = (   0.3500216  -0.4500216  -0.4500216), wk =   0.0101010
        k(   99) = (   0.4500215   0.4499785  -0.4500215), wk =   0.0101010

     Dense  grid:     6363 G-vectors     FFT dimensions: (  25,  25,  25)

     Largest allocated arrays     est. size (Mb)     dimensions
        Kohn-Sham Wavefunctions         0.49 Mb     (   1590,   20)
        NL pseudopotentials             0.19 Mb     (    795,   16)
        Each V/rho on FFT grid          0.24 Mb     (  15625)
        Each G-vector array             0.05 Mb     (   6363)
        G-vector shells                 0.00 Mb     (     98)
     Largest temporary arrays     est. size (Mb)     dimensions
        Auxiliary wavefunctions         1.94 Mb     (   1590,   80)
        Each subspace H/S matrix        0.10 Mb     (  80,  80)
        Each <psi_i|beta_j> matrix      0.01 Mb     (     16,   2,   20)

     Check: negative/imaginary core charge=   -0.000002    0.000000

     The potential is recalculated from file :
     ./Fe_nscf_e70_k10s1_nb20_so.save/charge-density.dat

     Starting wfc are   18 randomized atomic wfcs

     total cpu time spent up to now is        0.6 secs

     per-process dynamical memory:    13.0 Mb

     Band Structure Calculation
     Davidson diagonalization with overlap

     Computing kpt #:     1
     total cpu time spent up to now is        1.0 secs

     Computing kpt #:     2
     total cpu time spent up to now is        1.3 secs

     Computing kpt #:     3
     total cpu time spent up to now is        1.7 secs

     Computing kpt #:     4
     total cpu time spent up to now is        2.0 secs

     Computing kpt #:     5
     total cpu time spent up to now is        2.3 secs

     Computing kpt #:     6
     total cpu time spent up to now is        2.6 secs

     Computing kpt #:     7
     total cpu time spent up to now is        2.9 secs

     Computing kpt #:     8
     total cpu time spent up to now is        3.2 secs

     Computing kpt #:     9
     total cpu time spent up to now is        3.5 secs

     Computing kpt #:    10
     total cpu time spent up to now is        3.8 secs

     Computing kpt #:    11
     total cpu time spent up to now is        4.1 secs

     Computing kpt #:    12
     total cpu time spent up to now is        4.4 secs

     Computing kpt #:    13
     total cpu time spent up to now is        4.7 secs

     Computing kpt #:    14
     total cpu time spent up to now is        5.0 secs

     Computing kpt #:    15
     total cpu time spent up to now is        5.3 secs

     Computing kpt #:    16
     total cpu time spent up to now is        5.6 secs

     Computing kpt #:    17
     total cpu time spent up to now is        5.9 secs

     Computing kpt #:    18
     total cpu time spent up to now is        6.2 secs

     Computing kpt #:    19
     total cpu time spent up to now is        6.5 secs

     Computing kpt #:    20
     total cpu time spent up to now is        6.8 secs

     Computing kpt #:    21
     total cpu time spent up to now is        7.0 secs

     Computing kpt #:    22
     total cpu time spent up to now is        7.3 secs

     Computing kpt #:    23
     total cpu time spent up to now is        7.6 secs

     Computing kpt #:    24
     total cpu time spent up to now is        7.9 secs

     Computing kpt #:    25
     total cpu time spent up to now is        8.2 secs

     Computing kpt #:    26
     total cpu time spent up to now is        8.5 secs

     Computing kpt #:    27
     total cpu time spent up to now is        8.8 secs

     Computing kpt #:    28
     total cpu time spent up to now is        9.1 secs

     Computing kpt #:    29
     total cpu time spent up to now is        9.4 secs

     Computing kpt #:    30
     total cpu time spent up to now is        9.6 secs

     Computing kpt #:    31
     total cpu time spent up to now is        9.9 secs

     Computing kpt #:    32
     total cpu time spent up to now is       10.2 secs

     Computing kpt #:    33
     total cpu time spent up to now is       10.5 secs

     Computing kpt #:    34
     total cpu time spent up to now is       10.8 secs

     Computing kpt #:    35
     total cpu time spent up to now is       11.1 secs

     Computing kpt #:    36
     total cpu time spent up to now is       11.3 secs

     Computing kpt #:    37
     total cpu time spent up to now is       11.6 secs

     Computing kpt #:    38
     total cpu time spent up to now is       11.9 secs

     Computing kpt #:    39
     total cpu time spent up to now is       12.2 secs

     Computing kpt #:    40
     total cpu time spent up to now is       12.7 secs

     Computing kpt #:    41
     total cpu time spent up to now is       12.9 secs

     Computing kpt #:    42
     total cpu time spent up to now is       13.2 secs

     Computing kpt #:    43
     total cpu time spent up to now is       13.5 secs

     Computing kpt #:    44
     total cpu time spent up to now is       13.7 secs

     Computing kpt #:    45
     total cpu time spent up to now is       14.1 secs

     Computing kpt #:    46
     total cpu time spent up to now is       14.4 secs

     Computing kpt #:    47
     total cpu time spent up to now is       14.8 secs

     Computing kpt #:    48
     total cpu time spent up to now is       15.1 secs

     Computing kpt #:    49
     total cpu time spent up to now is       15.4 secs

     Computing kpt #:    50
     total cpu time spent up to now is       15.7 secs

     Computing kpt #:    51
     total cpu time spent up to now is       16.0 secs

     Computing kpt #:    52
     total cpu time spent up to now is       16.3 secs

     Computing kpt #:    53
     total cpu time spent up to now is       16.6 secs

     Computing kpt #:    54
     total cpu time spent up to now is       16.9 secs

     Computing kpt #:    55
     total cpu time spent up to now is       17.2 secs

     Computing kpt #:    56
     total cpu time spent up to now is       17.5 secs

     Computing kpt #:    57
     total cpu time spent up to now is       17.8 secs

     Computing kpt #:    58
     total cpu time spent up to now is       18.1 secs

     Computing kpt #:    59
     total cpu time spent up to now is       18.3 secs

     Computing kpt #:    60
     total cpu time spent up to now is       18.7 secs

     Computing kpt #:    61
     total cpu time spent up to now is       19.0 secs

     Computing kpt #:    62
     total cpu time spent up to now is       19.3 secs

     Computing kpt #:    63
     total cpu time spent up to now is       19.6 secs

     Computing kpt #:    64
     total cpu time spent up to now is       19.9 secs

     Computing kpt #:    65
     total cpu time spent up to now is       20.2 secs

     Computing kpt #:    66
     total cpu time spent up to now is       20.5 secs

     Computing kpt #:    67
     total cpu time spent up to now is       20.9 secs

     Computing kpt #:    68
     total cpu time spent up to now is       21.4 secs

     Computing kpt #:    69
     total cpu time spent up to now is       21.9 secs

     Computing kpt #:    70
     total cpu time spent up to now is       22.4 secs

     Computing kpt #:    71
     total cpu time spent up to now is       22.9 secs

     Computing kpt #:    72
     total cpu time spent up to now is       23.4 secs

     Computing kpt #:    73
     total cpu time spent up to now is       23.9 secs

     Computing kpt #:    74
     total cpu time spent up to now is       24.5 secs

     Computing kpt #:    75
     total cpu time spent up to now is       25.0 secs

     Computing kpt #:    76
     total cpu time spent up to now is       25.5 secs

     Computing kpt #:    77
     total cpu time spent up to now is       26.0 secs

     Computing kpt #:    78
     total cpu time spent up to now is       26.5 secs

     Computing kpt #:    79
     total cpu time spent up to now is       27.1 secs

     Computing kpt #:    80
     total cpu time spent up to now is       27.6 secs

     Computing kpt #:    81
     total cpu time spent up to now is       28.1 secs

     Computing kpt #:    82
     total cpu time spent up to now is       28.7 secs

     Computing kpt #:    83
     total cpu time spent up to now is       29.2 secs

     Computing kpt #:    84
     total cpu time spent up to now is       29.8 secs

     Computing kpt #:    85
     total cpu time spent up to now is       30.8 secs

     Computing kpt #:    86
     total cpu time spent up to now is       31.4 secs

     Computing kpt #:    87
     total cpu time spent up to now is       31.9 secs

     Computing kpt #:    88
     total cpu time spent up to now is       32.3 secs

     Computing kpt #:    89
     total cpu time spent up to now is       32.7 secs

     Computing kpt #:    90
     total cpu time spent up to now is       33.1 secs

     Computing kpt #:    91
     total cpu time spent up to now is       33.5 secs

     Computing kpt #:    92
     total cpu time spent up to now is       34.0 secs

     Computing kpt #:    93
     total cpu time spent up to now is       34.5 secs

     Computing kpt #:    94
     total cpu time spent up to now is       35.0 secs

     Computing kpt #:    95
     total cpu time spent up to now is       35.4 secs

     Computing kpt #:    96
     total cpu time spent up to now is       35.8 secs

     Computing kpt #:    97
     total cpu time spent up to now is       36.3 secs

     Computing kpt #:    98
     total cpu time spent up to now is       36.6 secs

     Computing kpt #:    99
     total cpu time spent up to now is       37.0 secs

     ethr =  1.25E-10,  avg # of iterations = 14.1

     total cpu time spent up to now is       37.0 secs

     End of band structure calculation

          k = 0.0000 0.0000 0.1000     band energies (ev):

     5.2844   5.4482  11.2323  11.2907  11.3141  12.3567  12.4723  13.5256
    13.5786  13.6167  15.4113  15.5722  38.3217  38.6093  39.2522  39.2565
    39.5790  39.5849  42.1066  42.6699

          k = 0.0000-0.1000 0.2000     band energies (ev):

     6.0615   6.2338  11.0871  11.2275  11.7058  12.1691  12.5329  13.3375
    13.4834  14.0438  15.1413  15.6437  35.2690  35.5088  37.5671  37.6193
    38.9607  39.0651  41.5455  41.8164

          k = 0.0000-0.2000 0.3000     band energies (ev):

     7.4135   7.6736  10.7939  11.1083  12.1682  12.4289  12.6038  12.9837
    13.2283  14.8315  15.0404  15.7172  30.1127  30.7848  35.1132  35.2218
    36.7968  37.5169  40.9573  41.1385

          k = 0.0000-0.3000 0.4000     band energies (ev):

     8.5746   9.3426  10.5105  11.4944  12.3998  12.6400  12.8283  13.0799
    13.2459  15.1798  15.7477  15.8208  25.2668  26.2581  33.2349  33.3258
    34.3881  35.1552  40.8116  40.9986

          k = 0.0000-0.4000 0.5000     band energies (ev):

     8.8437  10.3077  10.3408  12.1361  12.4035  12.4947  13.5489  13.8041
    14.0142  15.3026  16.0358  16.3979  21.6614  23.0646  32.2319  32.2947
    32.9369  33.6440  40.7919  41.0369

          k =-0.1000 0.1000 0.1000     band energies (ev):

     5.6790   5.8452  11.1308  11.1525  11.6309  12.3810  12.3965  13.3969
    13.4190  13.9565  15.4467  15.4569  37.2791  37.2839  37.3153  37.3234
    39.7607  40.1504  40.3885  41.4743

          k =-0.1000-0.1000 0.3000     band energies (ev):

     7.1234   7.3395  11.0151  11.0208  11.9848  12.2502  12.6731  13.2119
    13.2542  14.6079  14.8472  15.7869  32.8251  33.2209  33.3214  33.8788
    38.4125  39.0616  39.0828  39.1374

          k =-0.1000-0.2000 0.4000     band energies (ev):

     8.4565   8.9240  10.6758  10.9566  12.1189  12.7440  12.8294  12.9954
    13.2931  14.8680  15.4853  15.9709  27.9294  28.7204  31.0898  31.6567
    35.8812  36.3766  39.7294  39.9109

          k =-0.1000-0.3000 0.5000     band energies (ev):

     9.0924  10.3197  10.4997  11.2555  12.3398  12.5808  12.9072  13.1380
    14.7092  15.0993  15.8989  16.8108  23.4638  24.5841  29.6741  30.2533
    34.1531  34.5576  40.4763  40.7389

          k =-0.1000 0.6000-0.4000     band energies (ev):

     9.1334  10.4420  10.7460  11.4904  12.3641  12.5274  13.0807  13.4442
    15.1751  16.0028  16.0813  17.5698  21.0952  22.5539  29.1422  29.7149
    33.5520  33.9184  40.7789  41.0890

          k =-0.2000 0.2000 0.1000     band energies (ev):

     6.7847   6.9799  10.8630  10.9970  12.2673  12.2896  12.4708  13.0702
    13.1963  14.6405  15.2715  15.5475  32.7154  33.1811  35.0878  35.2666
    36.9353  37.8529  40.4951  40.7977

          k =-0.2000-0.2000 0.5000     band energies (ev):

     9.3997  10.3344  10.3682  10.9522  12.2417  12.4049  12.8516  12.9325
    14.9527  14.9788  15.7748  17.0730  26.1355  26.3886  26.9870  27.2124
    35.3080  35.8062  39.6245  39.7009

          k =-0.2000 0.7000-0.4000     band energies (ev):

     9.6675  10.3766  10.8465  11.2901  12.3014  12.4609  12.6569  13.0675
    15.1992  15.8098  17.3484  18.8769  22.2002  23.3690  25.3298  26.1488
    34.7140  35.1927  40.5013  40.6227

          k =-0.3000 0.3000 0.1000     band energies (ev):

     8.1947   8.6162  10.5552  11.0313  12.3427  12.5454  12.6992  12.9266
    13.1986  15.2705  15.5712  15.6609  27.6383  28.4464  33.0597  33.2589
    34.4314  35.2637  41.0041  41.1040

          k =-0.3000 0.2000 0.2000     band energies (ev):

     8.0533   8.3502  10.6413  10.6730  12.3079  12.5473  12.7667  12.7822
    13.2471  15.2717  15.5551  15.6716  30.3684  30.7209  30.9082  31.3747
    33.8278  34.5050  41.7360  42.0190

          k =-0.3000 0.7000-0.3000     band energies (ev):

    10.1359  10.3466  10.3749  12.0235  12.1633  12.1782  12.7840  12.8150
    15.5106  15.5456  20.4557  20.4846  21.6378  21.6451  22.8963  23.9526
    34.9609  35.5140  41.7459  41.7525

          k =-0.4000 0.4000 0.1000     band energies (ev):

     8.8691  10.0486  10.3248  12.0013  12.3766  12.5170  12.6177  13.1308
    14.3027  15.3743  15.7532  16.5217  23.2539  24.4158  31.6964  31.8636
    32.6307  33.3936  41.1915  41.2452

          k =-0.4000 0.3000 0.2000     band energies (ev):

     9.1597   9.9493  10.3765  10.8425  12.3663  12.4462  12.5981  12.6600
    14.6178  15.3445  15.7492  16.7805  25.7138  26.5975  28.8816  29.5084
    32.0843  32.6675  42.5337  42.6703

          k = 0.5000-0.5000 0.1000     band energies (ev):

     8.9252  10.2400  10.4752  12.2865  12.5195  12.6401  12.7723  13.6230
    15.2169  15.4209  15.7936  17.0296  21.0494  22.5531  31.2183  31.3668
    31.9531  32.6776  41.2087  41.3142

          k = 0.5000-0.6000 0.2000     band energies (ev):

     9.3324  10.2530  10.8439  11.5336  12.2444  12.5307  12.7503  12.8648
    15.4536  15.8061  16.4190  18.0566  21.9136  23.1789  27.9395  28.5595
    31.1553  31.6941  42.8700  42.8950

          k = 0.5000-0.7000 0.3000     band energies (ev):

     9.7543  10.2815  10.8191  11.1592  12.1489  12.4252  12.5399  12.7412
    15.4565  15.7817  16.8151  18.5184  24.1353  24.6974  25.0440  25.5908
    31.0666  31.6343  43.7716  43.8966

          k = 0.4000-0.6000 0.3000     band energies (ev):

     9.8166  10.3217  10.8795  11.5423  12.1562  12.4193  12.6103  12.7524
    15.5620  15.7475  19.0028  20.2492  21.3406  22.5573  24.0534  24.9450
    30.7343  31.3099  44.4575  44.5438

          k = 0.0000 0.0000 0.3000     band energies (ev):

     6.7909   6.9852  11.2930  11.3527  11.6496  11.7750  12.7378  13.5370
    13.5893  14.0658  14.5543  15.8627  35.2758  35.3169  36.3300  36.4541
    36.5331  36.8908  36.9826  37.0781

          k = 0.0000-0.1000 0.4000     band energies (ev):

     8.0199   8.3447  11.0097  11.1803  11.7471  12.3454  13.0026  13.3405
    13.3877  14.3063  14.7472  16.0295  30.7398  31.4000  33.8304  34.1391
    34.4496  34.5231  37.4477  37.8803

          k = 0.0000-0.2000 0.5000     band energies (ev):

     9.0311   9.8952  10.7343  10.9501  12.1102  12.8147  13.0928  13.1786
    13.8808  14.6569  15.6639  16.3781  25.7900  26.7240  31.6576  32.3602
    32.8027  33.1275  39.3803  39.7276

          k = 0.0000-0.3000 0.6000     band energies (ev):

     9.2264  10.7983  10.8154  10.9155  12.1789  12.7002  12.9306  13.7507
    14.8270  15.7900  16.3365  17.3882  21.9009  23.1981  30.3618  31.0231
    32.0811  32.4058  41.8679  42.0780

          k =-0.1000-0.1000 0.5000     band energies (ev):

     9.0413   9.7271  10.5122  11.2972  11.8912  12.8181  12.8454  13.4422
    13.8812  14.3441  15.3696  16.4185  28.7095  28.8165  29.4653  29.5625
    35.5524  35.7625  36.0421  36.1078

          k =-0.1000-0.2000 0.6000     band energies (ev):

     9.5452  10.2702  10.9375  11.1135  12.2097  12.3427  13.2284  13.3255
    14.7174  15.8636  15.9306  17.6917  24.1310  25.1285  27.3184  28.0664
    34.4199  34.8381  38.0260  38.3616

          k =-0.1000 0.7000-0.3000     band energies (ev):

     9.5327  10.4083  10.9447  11.3642  12.2477  12.3172  13.0630  13.5776
    14.8383  16.1525  17.8863  19.1501  21.3032  22.6091  26.7623  27.4891
    34.0000  34.4127  40.6147  40.6798

          k =-0.2000 0.8000-0.3000     band energies (ev):

     9.9384   9.9644  10.8664  11.7529  11.9855  12.6991  12.9177  13.2226
    15.2133  15.7803  18.8367  20.1345  22.5974  23.6185  23.6339  24.5630
    37.0331  37.3753  37.5382  37.5925

          k =-0.3000 0.3000 0.3000     band energies (ev):

     9.3038   9.8093  10.3692  10.3720  12.3626  12.3789  12.5250  12.5517
    14.6435  15.5718  15.6058  16.8207  28.4796  28.5330  28.9190  29.0857
    29.1193  29.8498  44.1479  44.5366

          k = 0.6000-0.6000 0.3000     band energies (ev):

     9.8291  10.2202  10.7368  11.0946  12.1473  12.2745  12.5757  12.6368
    15.6215  15.7647  16.6234  18.3750  24.1497  25.0768  27.3485  27.4606
    27.9470  28.2604  45.7868  46.0926

          k = 0.5000-0.5000 0.3000     band energies (ev):

     9.7623  10.1739  11.1687  11.3834  12.0737  12.5398  12.6073  12.6718
    15.6528  15.8189  18.4735  19.7378  21.4064  22.6772  26.9533  26.9799
    27.5521  27.7629  46.2158  46.4502

          k = 0.5000-0.6000 0.4000     band energies (ev):

    10.0544  10.3282  10.6582  11.7694  12.0520  12.1760  12.6344  12.6706
    15.7407  15.8070  19.3383  20.6137  22.8760  23.7073  23.8098  24.6409
    26.6665  27.3787  48.3000  48.5727

          k = 0.0000 0.0000 0.5000     band energies (ev):

     8.8884   9.4873  10.6441  11.6564  11.7195  12.4083  13.1933  13.6564
    13.8894  13.9284  14.8318  16.3576  30.9942  31.1502  31.7082  31.8608
    33.0153  33.1755  33.4019  33.7405

          k = 0.0000-0.1000 0.6000     band energies (ev):

     9.4430  10.1162  10.6491  11.7240  12.0504  12.4491  13.0639  13.9382
    14.3577  15.1899  15.5523  17.1430  26.6976  27.5110  28.8425  29.5261
    32.3122  32.8712  34.6023  35.1002

          k = 0.0000-0.2000 0.7000     band energies (ev):

     9.4964   9.9484  11.3536  11.6482  11.9661  12.2138  13.6589  13.8574
    14.5692  16.2368  17.7514  19.0162  22.5087  23.5724  27.5245  28.1479
    31.9048  32.5069  37.3050  37.6416

          k =-0.1000-0.1000 0.7000     band energies (ev):

     9.5629   9.6949  11.2917  11.7977  11.9185  12.5736  13.3765  13.9993
    14.9216  15.9050  17.5575  18.8882  24.9990  25.2705  25.8044  26.0258
    33.7256  34.0302  34.1877  34.6628

          k =-0.1000 0.8000-0.2000     band energies (ev):

     9.4948   9.6226  11.5804  11.6360  11.7517  12.8405  13.5311  13.9053
    15.2426  16.0745  20.1823  21.1417  21.8377  22.8472  24.5526  25.2846
    33.6032  34.1414  36.2988  36.5818

          k = 0.5000-0.5000 0.5000     band energies (ev):

    10.3566  10.3675  10.3785  12.0284  12.0355  12.0368  12.6633  12.6649
    15.8312  15.8317  22.4107  22.4450  22.4815  23.3628  23.3867  23.4089
    23.8390  24.7787  52.9218  52.9230

          k = 0.0000 0.0000 0.7000     band energies (ev):

     9.3987   9.6186  11.1007  11.9085  12.4785  12.5484  13.1099  14.7626
    14.8336  15.6188  17.0712  18.3919  26.4280  26.5952  27.0526  27.2150
    31.8382  32.0845  32.5008  32.8591

          k = 0.0000-0.1000 0.8000     band energies (ev):

     9.2668   9.3158  11.2824  11.4823  12.6745  12.8712  13.5789  15.0185
    15.2158  16.1423  19.7898  20.6679  23.4401  24.1410  25.1143  25.6424
    31.7422  32.4995  33.4668  34.1044

          k =-0.1000 0.9000-0.1000     band energies (ev):

     9.1545   9.1564  11.2735  11.2749  12.7789  13.4571  13.4865  15.1181
    15.9762  16.0033  22.3973  22.4784  23.0030  23.0985  23.1925  23.7803
    32.8974  32.9084  33.4861  33.4965

          k = 0.0000 0.0000 0.9000     band energies (ev):

     8.9971   9.0015  11.1040  11.1560  13.4103  13.4798  13.5559  15.9186
    15.9904  16.1218  21.9476  22.4472  23.5427  23.7048  23.9225  24.0842
    31.3689  31.8807  32.1774  32.6899

          k = 0.0000 0.1000 0.0000     band energies (ev):

     5.2844   5.4482  11.2489  11.2597  11.3289  12.3511  12.4780  13.5429
    13.5475  13.6303  15.4102  15.5732  38.3216  38.6093  39.2543  39.2544
    39.5819  39.5820  42.1061  42.6718

          k =-0.1000 0.2000 0.0000     band energies (ev):

     6.0613   6.2336  11.0883  11.2261  11.7085  12.1611  12.5395  13.3398
    13.4783  14.0464  15.1393  15.6449  35.2701  35.5097  37.5678  37.6196
    38.9604  39.0649  41.5464  41.8092

          k = 0.2000 0.0000-0.1000     band energies (ev):

     6.0618   6.2341  11.0878  11.2265  11.7081  12.1625  12.5385  13.3368
    13.4822  14.0454  15.1398  15.6446  35.2680  35.5078  37.5662  37.6189
    38.9599  39.0646  41.5456  41.8217

          k =-0.2000 0.3000 0.0000     band energies (ev):

     7.4132   7.6733  10.7943  11.1083  12.1656  12.4238  12.6127  12.9847
    13.2257  14.8368  15.0336  15.7187  30.1140  30.7859  35.1139  35.2220
    36.7964  37.5169  40.9581  41.1391

          k = 0.3000 0.0000-0.2000     band energies (ev):

     7.4139   7.6740  10.7940  11.1084  12.1688  12.4191  12.6151  12.9815
    13.2286  14.8350  15.0358  15.7184  30.1116  30.7838  35.1125  35.2214
    36.7956  37.5158  40.9581  41.1388

          k =-0.3000 0.4000 0.0000     band energies (ev):

     8.5744   9.3423  10.5108  11.4937  12.3907  12.6479  12.8400  13.0653
    13.2509  15.1781  15.7485  15.8210  25.2680  26.2590  33.2358  33.3255
    34.3877  35.1552  40.8121  40.9992

          k = 0.4000 0.0000-0.3000     band energies (ev):

     8.5748   9.3430  10.5106  11.4939  12.4010  12.6404  12.8249  13.0782
    13.2507  15.1806  15.7360  15.8316  25.2658  26.2573  33.2344  33.3255
    34.3872  35.1542  40.8122  40.9992

          k =-0.4000 0.5000 0.0000     band energies (ev):

     8.8436  10.3076  10.3410  12.1298  12.4008  12.5047  13.5467  13.8042
    14.0150  15.3008  16.0384  16.3968  21.6622  23.0650  32.2334  32.2936
    32.9364  33.6438  40.7923  41.0375

          k = 0.5000 0.0000-0.4000     band energies (ev):

     8.8437  10.3080  10.3408  12.1329  12.4164  12.4847  13.5469  13.8040
    14.0174  15.3027  16.0344  16.3992  21.6609  23.0642  32.2317  32.2946
    32.9364  33.6434  40.7924  41.0374

          k =-0.1000 0.3000-0.1000     band energies (ev):

     7.1233   7.3395  11.0148  11.0218  11.9852  12.2435  12.6809  13.2120
    13.2517  14.6129  14.8415  15.7879  32.8250  33.2216  33.3207  33.8791
    38.4127  39.0468  39.1101  39.1246

          k =-0.2000 0.4000-0.1000     band energies (ev):

     8.4563   8.9239  10.6764  10.9563  12.1150  12.7458  12.8348  12.9913
    13.2942  14.8676  15.4837  15.9723  27.9308  28.7215  31.0884  31.6555
    35.8820  36.3774  39.7285  39.9100

          k = 0.4000-0.1000-0.2000     band energies (ev):

     8.4569   8.9246  10.6761  10.9563  12.1167  12.7465  12.8278  12.9951
    13.2955  14.8685  15.4828  15.9730  27.9285  28.7195  31.0877  31.6548
    35.8811  36.3764  39.7289  39.9104

          k =-0.3000 0.5000-0.1000     band energies (ev):

     9.0925  10.3199  10.5001  11.2543  12.3354  12.5849  12.9074  13.1381
    14.7103  15.0976  15.8990  16.8114  23.4650  24.5850  29.6725  30.2519
    34.1539  34.5583  40.4756  40.7384

          k = 0.5000-0.1000-0.3000     band energies (ev):

     9.0926  10.3203  10.5000  11.2545  12.3413  12.5787  12.9057  13.1398
    14.7115  15.0995  15.8971  16.8123  23.4631  24.5834  29.6722  30.2515
    34.1534  34.5578  40.4760  40.7387

          k = 0.6000-0.4000-0.1000     band energies (ev):

     9.1334  10.4421  10.7466  11.4889  12.3573  12.5365  13.0795  13.4435
    15.1745  16.0005  16.0849  17.5705  21.0955  22.5539  29.1404  29.7132
    33.5525  33.9189  40.7786  41.0888

          k = 0.2000 0.1000-0.2000     band energies (ev):

     6.7853   6.9805  10.8628  10.9969  12.2528  12.3125  12.4624  13.0681
    13.1989  14.6396  15.2740  15.5459  32.7132  33.1790  35.0865  35.2658
    36.9344  37.8517  40.4954  40.7979

          k =-0.2000 0.5000-0.2000     band energies (ev):

     9.3996  10.3356  10.3676  10.9518  12.2407  12.4017  12.8642  12.9242
    14.9520  14.9802  15.7737  17.0735  26.1370  26.3858  26.9897  27.2109
    35.3081  35.8062  39.6243  39.7009

          k = 0.7000-0.4000-0.2000     band energies (ev):

     9.6676  10.3770  10.8463  11.2898  12.3008  12.4572  12.6617  13.0670
    15.1987  15.8102  17.3487  18.8775  22.2013  23.3697  25.3282  26.1473
    34.7145  35.1931  40.5010  40.6225

          k =-0.4000-0.2000 0.7000     band energies (ev):

     9.6677  10.3769  10.8459  11.2906  12.3030  12.4563  12.6593  13.0680
    15.1990  15.8101  17.3496  18.8782  22.1996  23.3684  25.3282  26.1471
    34.7143  35.1929  40.5015  40.6229

          k = 0.3000 0.1000-0.3000     band energies (ev):

     8.1953   8.6169  10.5550  11.0314  12.3540  12.5336  12.6919  12.9360
    13.1973  15.2713  15.5718  15.6601  27.6360  28.4444  33.0584  33.2586
    34.4307  35.2628  41.0042  41.1041

          k = 0.2000 0.2000-0.3000     band energies (ev):

     8.0539   8.3509  10.6409  10.6731  12.3139  12.5379  12.7701  12.7823
    13.2472  15.2705  15.5618  15.6668  30.3680  30.7144  30.9115  31.3722
    33.8270  34.5040  41.7365  42.0195

          k = 0.4000 0.1000-0.4000     band energies (ev):

     8.8692  10.0490  10.3247  12.0014  12.3919  12.5125  12.6049  13.1328
    14.3037  15.3775  15.7497  16.5226  23.2520  24.4144  31.6949  31.8642
    32.6302  33.3930  41.1915  41.2452

          k = 0.3000 0.2000-0.4000     band energies (ev):

     9.1600   9.9499  10.3763  10.8429  12.3820  12.4395  12.5792  12.6696
    14.6185  15.3459  15.7482  16.7810  25.7117  26.5957  28.8811  29.5079
    32.0838  32.6670  42.5340  42.6705

          k = 0.2000-0.4000 0.3000     band energies (ev):

     9.1601   9.9499  10.3765  10.8424  12.3818  12.4328  12.5881  12.6675
    14.6188  15.3458  15.7479  16.7813  25.7129  26.5968  28.8796  29.5066
    32.0837  32.6669  42.5343  42.6709

          k =-0.5000 0.1000 0.5000     band energies (ev):

     8.9252  10.2401  10.4751  12.2939  12.5201  12.6276  12.7763  13.6227
    15.2187  15.4236  15.7893  17.0300  21.0491  22.5531  31.2169  31.3683
    31.9530  32.6776  41.2087  41.3142

          k =-0.6000 0.2000 0.5000     band energies (ev):

     9.3325  10.2530  10.8439  11.5337  12.2490  12.5300  12.7480  12.8630
    15.4567  15.8037  16.4196  18.0571  21.9123  23.1779  27.9393  28.5594
    31.1551  31.6940  42.8701  42.8951

          k = 0.2000 0.5000-0.6000     band energies (ev):

     9.3327  10.2531  10.8441  11.5332  12.2496  12.5280  12.7471  12.8651
    15.4561  15.8045  16.4197  18.0575  21.9130  23.1785  27.9377  28.5580
    31.1550  31.6939  42.8707  42.8957

          k =-0.7000 0.3000 0.5000     band energies (ev):

     9.7545  10.2812  10.8193  11.1594  12.1479  12.4424  12.5249  12.7400
    15.4584  15.7800  16.8164  18.5192  24.1342  24.6962  25.0431  25.5899
    31.0663  31.6340  43.7721  43.8972

          k =-0.6000 0.3000 0.4000     band energies (ev):

     9.8166  10.3217  10.8794  11.5419  12.1583  12.4199  12.6099  12.7503
    15.5639  15.7458  19.0027  20.2492  21.3405  22.5573  24.0535  24.9450
    30.7343  31.3099  44.4575  44.5440

          k = 0.0000 0.3000 0.0000     band energies (ev):

     6.7908   6.9852  11.3199  11.3206  11.6985  11.7272  12.7441  13.5579
    13.5615  14.0751  14.5491  15.8635  35.2756  35.3168  36.3717  36.3851
    36.5601  36.9249  36.9405  37.0868

          k =-0.1000 0.4000 0.0000     band energies (ev):

     8.0196   8.3446  11.0104  11.1814  11.7446  12.3413  13.0118  13.3364
    13.3884  14.3068  14.7448  16.0304  30.7413  31.4011  33.8303  34.1391
    34.4498  34.5229  37.4464  37.8788

          k = 0.4000 0.0000-0.1000     band energies (ev):

     8.0202   8.3453  11.0100  11.1811  11.7458  12.3406  13.0118  13.3412
    13.3832  14.3083  14.7442  16.0305  30.7389  31.3989  33.8281  34.1425
    34.4412  34.5272  37.4470  37.8794

          k =-0.2000 0.5000 0.0000     band energies (ev):

     9.0309   9.8951  10.7360  10.9484  12.1087  12.8099  13.1058  13.1717
    13.8828  14.6543  15.6635  16.3790  25.7914  26.7250  31.6572  32.3597
    32.8034  33.1275  39.3789  39.7261

          k = 0.5000 0.0000-0.2000     band energies (ev):

     9.0313   9.8957  10.7357  10.9481  12.1108  12.8104  13.0940  13.1803
    13.8836  14.6572  15.6613  16.3801  25.7891  26.7232  31.6565  32.3596
    32.8021  33.1273  39.3797  39.7270

          k =-0.3000 0.6000 0.0000     band energies (ev):

     9.2263  10.7998  10.8205  10.9083  12.1786  12.6987  12.9339  13.7495
    14.8269  15.7900  16.3365  17.3886  21.9019  23.1986  30.3611  31.0225
    32.0814  32.4057  41.8665  42.0766

          k = 0.6000 0.0000-0.3000     band energies (ev):

     9.2265  10.8014  10.8154  10.9121  12.1796  12.6997  12.9301  13.7511
    14.8269  15.7926  16.3344  17.3894  21.9003  23.1976  30.3610  31.0223
    32.0810  32.4057  41.8675  42.0776

          k =-0.1000 0.5000-0.1000     band energies (ev):

     9.0412   9.7271  10.5125  11.2974  11.8899  12.7863  12.8774  13.4431
    13.8833  14.3419  15.3685  16.4195  28.7261  28.7957  29.4857  29.5462
    35.5542  35.7578  36.0544  36.0984

          k =-0.2000 0.6000-0.1000     band energies (ev):

     9.5450  10.2706  10.9377  11.1129  12.2123  12.3379  13.2389  13.3173
    14.7172  15.8667  15.9274  17.6922  24.1325  25.1293  27.3169  28.0649
    34.4213  34.8394  38.0244  38.3599

          k = 0.6000-0.1000-0.2000     band energies (ev):

     9.5453  10.2702  10.9385  11.1124  12.2113  12.3402  13.2302  13.3246
    14.7175  15.8821  15.9132  17.6931  24.1304  25.1276  27.3167  28.0645
    34.4210  34.8391  38.0254  38.3610

          k = 0.7000-0.3000-0.1000     band energies (ev):

     9.5326  10.4088  10.9443  11.3639  12.2625  12.3007  13.0668  13.5758
    14.8381  16.1524  17.8873  19.1511  21.3037  22.6091  26.7604  27.4875
    34.0012  34.4138  40.6137  40.6792

          k = 0.8000-0.3000-0.2000     band energies (ev):

     9.9352   9.9677  10.8663  11.7530  11.9854  12.6963  12.9217  13.2214
    15.2131  15.7804  18.8369  20.1347  22.5978  23.5954  23.6567  24.5626
    37.0338  37.3708  37.5521  37.5822

          k =-0.6000 0.3000 0.6000     band energies (ev):

     9.8290  10.2202  10.7372  11.0946  12.1507  12.2730  12.5819  12.6289
    15.6251  15.7614  16.6244  18.3758  24.1479  25.0751  27.3415  27.4695
    27.9424  28.2616  45.7872  46.0930

          k =-0.5000 0.3000 0.5000     band energies (ev):

     9.7622  10.1740  11.1690  11.3821  12.0765  12.5431  12.6214  12.6522
    15.6571  15.8151  18.4735  19.7378  21.4063  22.6772  26.9335  27.0026
    27.5464  27.7659  46.2157  46.4502

          k =-0.6000 0.4000 0.5000     band energies (ev):

    10.0544  10.3282  10.6582  11.7689  12.0508  12.1794  12.6399  12.6634
    15.7440  15.8038  19.3395  20.6148  22.8751  23.7044  23.8110  24.6402
    26.6663  27.3785  48.3008  48.5735

          k = 0.0000 0.5000 0.0000     band energies (ev):

     8.8882   9.4873  10.6443  11.6865  11.6889  12.4032  13.1974  13.6718
    13.8967  13.9068  14.8315  16.3584  31.0637  31.0637  31.7929  31.7931
    33.0150  33.1756  33.4017  33.7406

          k =-0.1000 0.6000 0.0000     band energies (ev):

     9.4428  10.1163  10.6492  11.7256  12.0493  12.4444  13.0678  13.9405
    14.3563  15.1889  15.5523  17.1435  26.6994  27.5110  28.8433  29.5254
    32.3121  32.8712  34.6010  35.0988

          k = 0.6000 0.0000-0.1000     band energies (ev):

     9.4430  10.1159  10.6497  11.7246  12.0500  12.4456  13.0665  13.9402
    14.3563  15.1931  15.5499  17.1442  26.6971  27.5091  28.8427  29.5246
    32.3120  32.8710  34.6019  35.0997

          k =-0.2000 0.7000 0.0000     band energies (ev):

     9.4960   9.9486  11.3534  11.6481  11.9704  12.2084  13.6641  13.8548
    14.5679  16.2369  17.7515  19.0165  22.5099  23.5730  27.5240  28.1474
    31.9047  32.5068  37.3036  37.6403

          k = 0.7000 0.0000-0.2000     band energies (ev):

     9.4964   9.9481  11.3550  11.6460  11.9669  12.2137  13.6592  13.8576
    14.5693  16.2370  17.7524  19.0173  22.5080  23.5717  27.5239  28.1470
    31.9047  32.5069  37.3046  37.6412

          k =-0.1000 0.7000-0.1000     band energies (ev):

     9.5628   9.6950  11.2925  11.7952  11.9204  12.5721  13.3780  13.9995
    14.9209  15.9052  17.5576  18.8886  25.0089  25.2513  25.8258  26.0136
    33.7260  34.0279  34.1897  34.6626

          k = 0.8000-0.2000-0.1000     band energies (ev):

     9.4945   9.6229  11.5781  11.6388  11.7516  12.8389  13.5336  13.9043
    15.2423  16.0746  20.1829  21.1434  21.8377  22.8471  24.5511  25.2831
    33.6042  34.1424  36.2982  36.5813

          k = 0.0000 0.7000 0.0000     band energies (ev):

     9.3987   9.6184  11.1013  11.9072  12.5118  12.5129  13.1126  14.7968
    14.7987  15.6195  17.0712  18.3923  26.5007  26.5009  27.1445  27.1446
    31.8379  32.0847  32.5006  32.8591

          k =-0.1000 0.8000 0.0000     band energies (ev):

     9.2665   9.3159  11.2830  11.4814  12.6785  12.8665  13.5801  15.0231
    15.2110  16.1427  19.7897  20.6681  23.4418  24.1399  25.1159  25.6412
    31.7420  32.4992  33.4658  34.1034

          k = 0.8000 0.0000-0.1000     band energies (ev):

     9.2669   9.3155  11.2832  11.4811  12.6764  12.8695  13.5794  15.0207
    15.2140  16.1426  19.7910  20.6691  23.4402  24.1384  25.1157  25.6409
    31.7422  32.4994  33.4666  34.1041

          k = 0.0000 0.9000 0.0000     band energies (ev):

     8.9974   9.0013  11.1047  11.1553  13.4354  13.4451  13.5655  15.9476
    15.9550  16.1282  21.9469  22.4489  23.6054  23.6071  24.0202  24.0206
    31.3686  31.8809  32.1772  32.6900

     Writing output data file Fe_nscf_e70_k10s1_nb20_so.save

     init_run     :      0.43s CPU      0.44s WALL (       1 calls)
     electrons    :     35.63s CPU     36.34s WALL (       1 calls)

     Called by init_run:
     wfcinit      :      0.00s CPU      0.00s WALL (       1 calls)
     potinit      :      0.05s CPU      0.05s WALL (       1 calls)

     Called by electrons:
     c_bands      :     35.63s CPU     36.34s WALL (       1 calls)
     v_of_rho     :      0.04s CPU      0.04s WALL (       1 calls)
     v_h          :      0.00s CPU      0.00s WALL (       1 calls)
     v_xc         :      0.04s CPU      0.04s WALL (       1 calls)

     Called by c_bands:
     init_us_2    :      0.04s CPU      0.05s WALL (      99 calls)
     cegterg      :     32.75s CPU     32.93s WALL (     102 calls)

     Called by sum_band:

     Called by *egterg:
     h_psi        :     19.77s CPU     19.94s WALL (    1595 calls)
     g_psi        :      0.28s CPU      0.28s WALL (    1394 calls)
     cdiaghg      :      2.92s CPU      2.93s WALL (    1493 calls)
     cegterg:over :      5.14s CPU      5.16s WALL (    1394 calls)
     cegterg:upda :      4.05s CPU      4.06s WALL (    1394 calls)
     cegterg:last :      2.03s CPU      2.03s WALL (     306 calls)

     Called by h_psi:
     h_psi:vloc   :     17.19s CPU     17.35s WALL (    1595 calls)
     h_psi:vnl    :      2.47s CPU      2.48s WALL (    1595 calls)
     add_vuspsi   :      1.25s CPU      1.25s WALL (    1595 calls)

     General routines
     calbec       :      1.22s CPU      1.22s WALL (    1595 calls)
     fft          :      0.01s CPU      0.01s WALL (      23 calls)
     fftw         :     13.48s CPU     13.54s WALL (   76900 calls)
     davcio       :      0.04s CPU      0.04s WALL (     198 calls)

     Parallel routines
     fft_scatter  :      1.14s CPU      1.21s WALL (   76923 calls)

     PWSCF        :    36.91s CPU        38.08s WALL


   This run was terminated on:  23:45:37  30Jun2015            

=------------------------------------------------------------------------------=
   JOB DONE.
=------------------------------------------------------------------------------=
