
     Program PWSCF v.5.0.2 (svn rev. 9656) starts on 30Jun2015 at 23:45:19 

     This program is part of the open-source Quantum ESPRESSO suite
     for quantum simulation of materials; please cite
         "P. Giannozzi et al., J. Phys.:Condens. Matter 21 395502 (2009);
          URL http://www.quantum-espresso.org", 
     in publications or presentations arising from this work. More details at
     http://www.quantum-espresso.org/quote.php

     Parallel version (MPI), running on     1 processors

     Current dimensions of program PWSCF are:
     Max number of different atomic species (ntypx) = 10
     Max number of k-points (npk) =  40000
     Max angular momentum in pseudopotentials (lmaxx) =  3
     Waiting for input...
     Reading input from standard input

     Atomic positions and unit cell read from directory:
     ./Fe_nscf_e70_k10s2_nb20_so.save/


     Fixed quantization axis for GGA:     0.000000    0.000000    1.000000

     Subspace diagonalization in iterative solution of the eigenvalue problem:
     a serial algorithm will be used


     G-vector sticks info
     --------------------
     sticks:   dense  smooth     PW     G-vecs:    dense   smooth      PW
     Sum         467     467    151                 6363     6363    1157

     Generating pointlists ...
     new r_m :   0.3572 (alat units)  1.9362 (a.u.) for type    1


     bravais-lattice index     =            3
     lattice parameter (alat)  =       5.4200  a.u.
     unit-cell volume          =      79.6100 (a.u.)^3
     number of atoms/cell      =            1
     number of atomic types    =            1
     number of electrons       =         8.00
     number of Kohn-Sham states=           20
     kinetic-energy cutoff     =      70.0000  Ry
     charge density cutoff     =     280.0000  Ry
     Exchange-correlation      = PBE ( 1 4 3 4 0)
     EXX-fraction              =        0.00
     Noncollinear calculation with spin-orbit


     celldm(1)=   5.420000  celldm(2)=   0.000000  celldm(3)=   0.000000
     celldm(4)=   0.000000  celldm(5)=   0.000000  celldm(6)=   0.000000

     crystal axes: (cart. coord. in units of alat)
               a(1) = (   0.500000   0.500000   0.500000 )  
               a(2) = (  -0.500000   0.500000   0.500000 )  
               a(3) = (  -0.500000  -0.500000   0.500000 )  

     reciprocal axes: (cart. coord. in units 2 pi/alat)
               b(1) = (  1.000000  0.000000  1.000000 )  
               b(2) = ( -1.000000  1.000000  0.000000 )  
               b(3) = (  0.000000 -1.000000  1.000000 )  


     PseudoPot. # 1 for Fe read from file:
     ./Fe.rel-pbe-n-nc.UPF
     MD5 check sum: 94258d60e67ccf79570366bad73e55f4
     Pseudo is Norm-conserving + core correction, Zval =  8.0
     Generated using "atomic" code by A. Dal Corso  v.5.0.2 svn rev. 10042M
     Using radial grid of 1191 points,  4 beta functions with: 
                l(1) =   1
                l(2) =   1
                l(3) =   2
                l(4) =   2

     atomic species   valence    mass     pseudopotential
        Fe             8.00    55.84500     Fe( 1.00)

     16 Sym. Ops., with inversion, found


                                    s                        frac. trans.

      isym =  1     identity                                     

 Time Reversal            0
 cryst.   s( 1) = (     1          0          0      )
                  (     0          1          0      )
                  (     0          0          1      )

 cart.    s( 1) = (  1.0000000  0.0000000  0.0000000 )
                  (  0.0000000  1.0000000  0.0000000 )
                  (  0.0000000  0.0000000  1.0000000 )


      isym =  2     180 deg rotation - cart. axis [0,0,1]        

 Time Reversal            0
 cryst.   s( 2) = (     0          0          1      )
                  (     1         -1          1      )
                  (     1          0          0      )

 cart.    s( 2) = ( -1.0000000  0.0000000  0.0000000 )
                  (  0.0000000 -1.0000000  0.0000000 )
                  (  0.0000000  0.0000000  1.0000000 )


      isym =  3     180 deg rotation - cart. axis [0,1,0]        

 Time Reversal            1
 cryst.   s( 3) = (    -1          1         -1      )
                  (     0          0         -1      )
                  (     0         -1          0      )

 cart.    s( 3) = ( -1.0000000  0.0000000  0.0000000 )
                  (  0.0000000  1.0000000  0.0000000 )
                  (  0.0000000  0.0000000 -1.0000000 )


      isym =  4     180 deg rotation - cart. axis [1,0,0]        

 Time Reversal            1
 cryst.   s( 4) = (     0         -1          0      )
                  (    -1          0          0      )
                  (    -1          1         -1      )

 cart.    s( 4) = (  1.0000000  0.0000000  0.0000000 )
                  (  0.0000000 -1.0000000  0.0000000 )
                  (  0.0000000  0.0000000 -1.0000000 )


      isym =  5     180 deg rotation - cart. axis [1,1,0]        

 Time Reversal            1
 cryst.   s( 5) = (     0          0         -1      )
                  (     0         -1          0      )
                  (    -1          0          0      )

 cart.    s( 5) = (  0.0000000  1.0000000  0.0000000 )
                  (  1.0000000  0.0000000  0.0000000 )
                  (  0.0000000  0.0000000 -1.0000000 )


      isym =  6     180 deg rotation - cart. axis [1,-1,0]       

 Time Reversal            1
 cryst.   s( 6) = (    -1          0          0      )
                  (    -1          1         -1      )
                  (     0          0         -1      )

 cart.    s( 6) = (  0.0000000 -1.0000000  0.0000000 )
                  ( -1.0000000  0.0000000  0.0000000 )
                  (  0.0000000  0.0000000 -1.0000000 )


      isym =  7      90 deg rotation - cart. axis [0,0,-1]       

 Time Reversal            0
 cryst.   s( 7) = (     1         -1          1      )
                  (     1          0          0      )
                  (     0          1          0      )

 cart.    s( 7) = (  0.0000000  1.0000000  0.0000000 )
                  ( -1.0000000  0.0000000  0.0000000 )
                  (  0.0000000  0.0000000  1.0000000 )


      isym =  8      90 deg rotation - cart. axis [0,0,1]        

 Time Reversal            0
 cryst.   s( 8) = (     0          1          0      )
                  (     0          0          1      )
                  (     1         -1          1      )

 cart.    s( 8) = (  0.0000000 -1.0000000  0.0000000 )
                  (  1.0000000  0.0000000  0.0000000 )
                  (  0.0000000  0.0000000  1.0000000 )


      isym =  9     inversion                                    

 Time Reversal            0
 cryst.   s( 9) = (    -1          0          0      )
                  (     0         -1          0      )
                  (     0          0         -1      )

 cart.    s( 9) = ( -1.0000000  0.0000000  0.0000000 )
                  (  0.0000000 -1.0000000  0.0000000 )
                  (  0.0000000  0.0000000 -1.0000000 )


      isym = 10     inv. 180 deg rotation - cart. axis [0,0,1]   

 Time Reversal            0
 cryst.   s(10) = (     0          0         -1      )
                  (    -1          1         -1      )
                  (    -1          0          0      )

 cart.    s(10) = (  1.0000000  0.0000000  0.0000000 )
                  (  0.0000000  1.0000000  0.0000000 )
                  (  0.0000000  0.0000000 -1.0000000 )


      isym = 11     inv. 180 deg rotation - cart. axis [0,1,0]   

 Time Reversal            1
 cryst.   s(11) = (     1         -1          1      )
                  (     0          0          1      )
                  (     0          1          0      )

 cart.    s(11) = (  1.0000000  0.0000000  0.0000000 )
                  (  0.0000000 -1.0000000  0.0000000 )
                  (  0.0000000  0.0000000  1.0000000 )


      isym = 12     inv. 180 deg rotation - cart. axis [1,0,0]   

 Time Reversal            1
 cryst.   s(12) = (     0          1          0      )
                  (     1          0          0      )
                  (     1         -1          1      )

 cart.    s(12) = ( -1.0000000  0.0000000  0.0000000 )
                  (  0.0000000  1.0000000  0.0000000 )
                  (  0.0000000  0.0000000  1.0000000 )


      isym = 13     inv. 180 deg rotation - cart. axis [1,1,0]   

 Time Reversal            1
 cryst.   s(13) = (     0          0          1      )
                  (     0          1          0      )
                  (     1          0          0      )

 cart.    s(13) = (  0.0000000 -1.0000000  0.0000000 )
                  ( -1.0000000  0.0000000  0.0000000 )
                  (  0.0000000  0.0000000  1.0000000 )


      isym = 14     inv. 180 deg rotation - cart. axis [1,-1,0]  

 Time Reversal            1
 cryst.   s(14) = (     1          0          0      )
                  (     1         -1          1      )
                  (     0          0          1      )

 cart.    s(14) = (  0.0000000  1.0000000  0.0000000 )
                  (  1.0000000  0.0000000  0.0000000 )
                  (  0.0000000  0.0000000  1.0000000 )


      isym = 15     inv.  90 deg rotation - cart. axis [0,0,-1]  

 Time Reversal            0
 cryst.   s(15) = (    -1          1         -1      )
                  (    -1          0          0      )
                  (     0         -1          0      )

 cart.    s(15) = (  0.0000000 -1.0000000  0.0000000 )
                  (  1.0000000  0.0000000  0.0000000 )
                  (  0.0000000  0.0000000 -1.0000000 )


      isym = 16     inv.  90 deg rotation - cart. axis [0,0,1]   

 Time Reversal            0
 cryst.   s(16) = (     0         -1          0      )
                  (     0          0         -1      )
                  (    -1          1         -1      )

 cart.    s(16) = (  0.0000000  1.0000000  0.0000000 )
                  ( -1.0000000  0.0000000  0.0000000 )
                  (  0.0000000  0.0000000 -1.0000000 )


     the magnetic double point group is D_4h(4/mmm) [C_4h (4/m) ]
     using the double point group C_4h (4/m) 
     there are 16 classes and  8 irreducible representations
     the character table:

       E     -E    C4    -C4   C4^2  -C4^2 C4^3  -C4^3 i     -i    S4^3  -S4^3
                                                                              
G_5+   1.00 -1.00  0.71 -0.71  0.00  0.00  0.71 -0.71  1.00 -1.00  0.71 -0.71
G_6+   1.00 -1.00  0.71 -0.71  0.00  0.00  0.71 -0.71  1.00 -1.00  0.71 -0.71
G_7+   1.00 -1.00 -0.71  0.71  0.00  0.00 -0.71  0.71  1.00 -1.00 -0.71  0.71
G_8+   1.00 -1.00 -0.71  0.71  0.00  0.00 -0.71  0.71  1.00 -1.00 -0.71  0.71
G_5-   1.00 -1.00  0.71 -0.71  0.00  0.00  0.71 -0.71 -1.00  1.00 -0.71  0.71
G_6-   1.00 -1.00  0.71 -0.71  0.00  0.00  0.71 -0.71 -1.00  1.00 -0.71  0.71
G_7-   1.00 -1.00 -0.71  0.71  0.00  0.00 -0.71  0.71 -1.00  1.00  0.71 -0.71
G_8-   1.00 -1.00 -0.71  0.71  0.00  0.00 -0.71  0.71 -1.00  1.00  0.71 -0.71

       s_h   -s_h  S4    -S4  
                              
G_5+   0.00  0.00  0.71 -0.71
G_6+   0.00  0.00  0.71 -0.71
G_7+   0.00  0.00 -0.71  0.71
G_8+   0.00  0.00 -0.71  0.71
G_5-   0.00  0.00 -0.71  0.71
G_6-   0.00  0.00 -0.71  0.71
G_7-   0.00  0.00  0.71 -0.71
G_8-   0.00  0.00  0.71 -0.71

     imaginary part

       E     -E    C4    -C4   C4^2  -C4^2 C4^3  -C4^3 i     -i    S4^3  -S4^3
                                                                              
G_5+   0.00  0.00  0.71 -0.71  1.00 -1.00 -0.71  0.71  0.00  0.00  0.71 -0.71
G_6+   0.00  0.00 -0.71  0.71 -1.00  1.00  0.71 -0.71  0.00  0.00 -0.71  0.71
G_7+   0.00  0.00 -0.71  0.71  1.00 -1.00  0.71 -0.71  0.00  0.00 -0.71  0.71
G_8+   0.00  0.00  0.71 -0.71 -1.00  1.00 -0.71  0.71  0.00  0.00  0.71 -0.71
G_5-   0.00  0.00  0.71 -0.71  1.00 -1.00 -0.71  0.71  0.00  0.00 -0.71  0.71
G_6-   0.00  0.00 -0.71  0.71 -1.00  1.00  0.71 -0.71  0.00  0.00  0.71 -0.71
G_7-   0.00  0.00 -0.71  0.71  1.00 -1.00  0.71 -0.71  0.00  0.00  0.71 -0.71
G_8-   0.00  0.00  0.71 -0.71 -1.00  1.00 -0.71  0.71  0.00  0.00 -0.71  0.71

       s_h   -s_h  S4    -S4  
                              
G_5+   1.00 -1.00 -0.71  0.71
G_6+  -1.00  1.00  0.71 -0.71
G_7+   1.00 -1.00  0.71 -0.71
G_8+  -1.00  1.00 -0.71  0.71
G_5-  -1.00  1.00  0.71 -0.71
G_6-   1.00 -1.00 -0.71  0.71
G_7-  -1.00  1.00 -0.71  0.71
G_8-   1.00 -1.00  0.71 -0.71

     the symmetry operations in each class:
     E             1
     C4^2          2
     C4^3          3
     C4            4
     i             5
     s_h           6
     S4            7
     S4^3          8
     -E           -1
     -C4^2        -2
     -C4^3        -3
     -C4          -4
     -i           -5
     -s_h         -6
     -S4          -7
     -S4^3        -8

   Cartesian axes

     site n.     atom                  positions (alat units)
         1           Fe  tau(   1) = (   0.0000000   0.0000000   0.0000000  )

   Crystallographic axes

     site n.     atom                  positions (cryst. coord.)
         1           Fe  tau(   1) = (  0.0000000  0.0000000  0.0000000  )

     number of k points=    99  gaussian smearing, width (Ry)=  0.0250
                       cart. coord. in units 2pi/alat
        k(    1) = (   0.0000000   0.0000431   0.1000000), wk =   0.0101010
        k(    2) = (   0.0000000  -0.0999569   0.2000000), wk =   0.0101010
        k(    3) = (   0.0000000  -0.1999569   0.3000000), wk =   0.0101010
        k(    4) = (   0.0000000  -0.2999569   0.4000000), wk =   0.0101010
        k(    5) = (   0.0000000  -0.3999569   0.5000000), wk =   0.0101010
        k(    6) = (  -0.1000000   0.1000431   0.1000000), wk =   0.0101010
        k(    7) = (  -0.1000000  -0.0999569   0.3000000), wk =   0.0101010
        k(    8) = (  -0.1000000  -0.1999569   0.4000000), wk =   0.0101010
        k(    9) = (  -0.1000000  -0.2999569   0.5000000), wk =   0.0101010
        k(   10) = (  -0.1000000   0.6000432  -0.4000000), wk =   0.0101010
        k(   11) = (  -0.2000000   0.2000431   0.1000000), wk =   0.0101010
        k(   12) = (  -0.2000000  -0.1999569   0.5000000), wk =   0.0101010
        k(   13) = (  -0.2000000   0.7000432  -0.4000000), wk =   0.0101010
        k(   14) = (  -0.3000000   0.3000431   0.1000000), wk =   0.0101010
        k(   15) = (  -0.3000000   0.2000431   0.2000000), wk =   0.0101010
        k(   16) = (  -0.3000000   0.7000432  -0.3000000), wk =   0.0101010
        k(   17) = (  -0.4000000   0.4000431   0.1000000), wk =   0.0101010
        k(   18) = (  -0.4000000   0.3000431   0.2000000), wk =   0.0101010
        k(   19) = (   0.5000000  -0.4999568   0.1000000), wk =   0.0101010
        k(   20) = (   0.5000000  -0.5999569   0.2000000), wk =   0.0101010
        k(   21) = (   0.5000000  -0.6999568   0.3000000), wk =   0.0101010
        k(   22) = (   0.4000000  -0.5999569   0.3000000), wk =   0.0101010
        k(   23) = (   0.0000000   0.0000431   0.3000000), wk =   0.0101010
        k(   24) = (   0.0000000  -0.0999569   0.4000000), wk =   0.0101010
        k(   25) = (   0.0000000  -0.1999569   0.5000000), wk =   0.0101010
        k(   26) = (   0.0000000  -0.2999569   0.6000000), wk =   0.0101010
        k(   27) = (  -0.1000000  -0.0999569   0.5000000), wk =   0.0101010
        k(   28) = (  -0.1000000  -0.1999569   0.6000000), wk =   0.0101010
        k(   29) = (  -0.1000000   0.7000432  -0.3000000), wk =   0.0101010
        k(   30) = (  -0.2000000   0.8000432  -0.3000000), wk =   0.0101010
        k(   31) = (  -0.3000000   0.3000431   0.3000000), wk =   0.0101010
        k(   32) = (   0.6000000  -0.5999569   0.3000000), wk =   0.0101010
        k(   33) = (   0.5000000  -0.4999568   0.3000000), wk =   0.0101010
        k(   34) = (   0.5000000  -0.5999569   0.4000000), wk =   0.0101010
        k(   35) = (   0.0000000   0.0000431   0.5000000), wk =   0.0101010
        k(   36) = (   0.0000000  -0.0999569   0.6000000), wk =   0.0101010
        k(   37) = (   0.0000000  -0.1999569   0.7000000), wk =   0.0101010
        k(   38) = (  -0.1000000  -0.0999569   0.7000000), wk =   0.0101010
        k(   39) = (  -0.1000000   0.8000432  -0.2000000), wk =   0.0101010
        k(   40) = (   0.5000000  -0.4999568   0.5000000), wk =   0.0101010
        k(   41) = (   0.0000000   0.0000431   0.7000000), wk =   0.0101010
        k(   42) = (   0.0000000  -0.0999569   0.8000000), wk =   0.0101010
        k(   43) = (  -0.1000000   0.9000432  -0.1000000), wk =   0.0101010
        k(   44) = (   0.0000000   0.0000431   0.9000000), wk =   0.0101010
        k(   45) = (   0.0000000   0.1000431   0.0000000), wk =   0.0101010
        k(   46) = (  -0.1000000   0.2000431   0.0000000), wk =   0.0101010
        k(   47) = (   0.2000000   0.0000431  -0.1000000), wk =   0.0101010
        k(   48) = (  -0.2000000   0.3000431   0.0000000), wk =   0.0101010
        k(   49) = (   0.3000000   0.0000431  -0.2000000), wk =   0.0101010
        k(   50) = (  -0.3000000   0.4000431   0.0000000), wk =   0.0101010
        k(   51) = (   0.4000000   0.0000431  -0.3000000), wk =   0.0101010
        k(   52) = (  -0.4000000   0.5000432   0.0000000), wk =   0.0101010
        k(   53) = (   0.5000000   0.0000431  -0.4000000), wk =   0.0101010
        k(   54) = (  -0.1000000   0.3000431  -0.1000000), wk =   0.0101010
        k(   55) = (  -0.2000000   0.4000431  -0.1000000), wk =   0.0101010
        k(   56) = (   0.4000000  -0.0999569  -0.2000000), wk =   0.0101010
        k(   57) = (  -0.3000000   0.5000432  -0.1000000), wk =   0.0101010
        k(   58) = (   0.5000000  -0.0999569  -0.3000000), wk =   0.0101010
        k(   59) = (   0.6000000  -0.3999569  -0.1000000), wk =   0.0101010
        k(   60) = (   0.2000000   0.1000431  -0.2000000), wk =   0.0101010
        k(   61) = (  -0.2000000   0.5000432  -0.2000000), wk =   0.0101010
        k(   62) = (   0.7000000  -0.3999569  -0.2000000), wk =   0.0101010
        k(   63) = (  -0.4000000  -0.1999569   0.7000000), wk =   0.0101010
        k(   64) = (   0.3000000   0.1000431  -0.3000000), wk =   0.0101010
        k(   65) = (   0.2000000   0.2000431  -0.3000000), wk =   0.0101010
        k(   66) = (   0.4000000   0.1000431  -0.4000000), wk =   0.0101010
        k(   67) = (   0.3000000   0.2000431  -0.4000000), wk =   0.0101010
        k(   68) = (   0.2000000  -0.3999569   0.3000000), wk =   0.0101010
        k(   69) = (  -0.5000000   0.1000431   0.5000000), wk =   0.0101010
        k(   70) = (  -0.6000000   0.2000431   0.5000000), wk =   0.0101010
        k(   71) = (   0.2000000   0.5000432  -0.6000000), wk =   0.0101010
        k(   72) = (  -0.7000000   0.3000431   0.5000000), wk =   0.0101010
        k(   73) = (  -0.6000000   0.3000431   0.4000000), wk =   0.0101010
        k(   74) = (   0.0000000   0.3000431   0.0000000), wk =   0.0101010
        k(   75) = (  -0.1000000   0.4000431   0.0000000), wk =   0.0101010
        k(   76) = (   0.4000000   0.0000431  -0.1000000), wk =   0.0101010
        k(   77) = (  -0.2000000   0.5000432   0.0000000), wk =   0.0101010
        k(   78) = (   0.5000000   0.0000431  -0.2000000), wk =   0.0101010
        k(   79) = (  -0.3000000   0.6000432   0.0000000), wk =   0.0101010
        k(   80) = (   0.6000000   0.0000431  -0.3000000), wk =   0.0101010
        k(   81) = (  -0.1000000   0.5000432  -0.1000000), wk =   0.0101010
        k(   82) = (  -0.2000000   0.6000432  -0.1000000), wk =   0.0101010
        k(   83) = (   0.6000000  -0.0999569  -0.2000000), wk =   0.0101010
        k(   84) = (   0.7000000  -0.2999569  -0.1000000), wk =   0.0101010
        k(   85) = (   0.8000000  -0.2999569  -0.2000000), wk =   0.0101010
        k(   86) = (  -0.6000000   0.3000431   0.6000000), wk =   0.0101010
        k(   87) = (  -0.5000000   0.3000431   0.5000000), wk =   0.0101010
        k(   88) = (  -0.6000000   0.4000431   0.5000000), wk =   0.0101010
        k(   89) = (   0.0000000   0.5000432   0.0000000), wk =   0.0101010
        k(   90) = (  -0.1000000   0.6000432   0.0000000), wk =   0.0101010
        k(   91) = (   0.6000000   0.0000431  -0.1000000), wk =   0.0101010
        k(   92) = (  -0.2000000   0.7000432   0.0000000), wk =   0.0101010
        k(   93) = (   0.7000000   0.0000431  -0.2000000), wk =   0.0101010
        k(   94) = (  -0.1000000   0.7000432  -0.1000000), wk =   0.0101010
        k(   95) = (   0.8000000  -0.1999569  -0.1000000), wk =   0.0101010
        k(   96) = (   0.0000000   0.7000432   0.0000000), wk =   0.0101010
        k(   97) = (  -0.1000000   0.8000432   0.0000000), wk =   0.0101010
        k(   98) = (   0.8000000   0.0000431  -0.1000000), wk =   0.0101010
        k(   99) = (   0.0000000   0.9000432   0.0000000), wk =   0.0101010

                       cryst. coord.
        k(    1) = (   0.0500216   0.0500216   0.0499785), wk =   0.0101010
        k(    2) = (   0.0500216   0.0500216   0.1499785), wk =   0.0101010
        k(    3) = (   0.0500215   0.0500215   0.2499784), wk =   0.0101010
        k(    4) = (   0.0500215   0.0500215   0.3499785), wk =   0.0101010
        k(    5) = (   0.0500215   0.0500215   0.4499785), wk =   0.0101010
        k(    6) = (   0.0500215   0.1500216   0.0499785), wk =   0.0101010
        k(    7) = (   0.0500215   0.1500216   0.2499784), wk =   0.0101010
        k(    8) = (   0.0500216   0.1500216   0.3499784), wk =   0.0101010
        k(    9) = (   0.0500215   0.1500216   0.4499785), wk =   0.0101010
        k(   10) = (   0.0500216   0.1500216  -0.4500216), wk =   0.0101010
        k(   11) = (   0.0500215   0.2500215   0.0499785), wk =   0.0101010
        k(   12) = (   0.0500215   0.2500216   0.4499785), wk =   0.0101010
        k(   13) = (   0.0500216   0.2500216  -0.4500216), wk =   0.0101010
        k(   14) = (   0.0500216   0.3500215   0.0499784), wk =   0.0101010
        k(   15) = (   0.0500216   0.3500216   0.1499784), wk =   0.0101010
        k(   16) = (   0.0500216   0.3500216  -0.3500216), wk =   0.0101010
        k(   17) = (   0.0500215   0.4500215   0.0499785), wk =   0.0101010
        k(   18) = (   0.0500215   0.4500215   0.1499785), wk =   0.0101010
        k(   19) = (   0.0500216  -0.4499784   0.0499784), wk =   0.0101010
        k(   20) = (   0.0500215  -0.4499785   0.1499785), wk =   0.0101010
        k(   21) = (   0.0500216  -0.4499784   0.2499784), wk =   0.0101010
        k(   22) = (   0.0500215  -0.3499785   0.2499784), wk =   0.0101010
        k(   23) = (   0.1500216   0.1500216   0.1499784), wk =   0.0101010
        k(   24) = (   0.1500216   0.1500216   0.2499785), wk =   0.0101010
        k(   25) = (   0.1500216   0.1500216   0.3499784), wk =   0.0101010
        k(   26) = (   0.1500215   0.1500215   0.4499785), wk =   0.0101010
        k(   27) = (   0.1500216   0.2500215   0.3499784), wk =   0.0101010
        k(   28) = (   0.1500216   0.2500215   0.4499784), wk =   0.0101010
        k(   29) = (   0.1500216   0.2500216  -0.4500216), wk =   0.0101010
        k(   30) = (   0.1500216   0.3500216  -0.4500216), wk =   0.0101010
        k(   31) = (   0.1500216   0.4500215   0.1499784), wk =   0.0101010
        k(   32) = (   0.1500215  -0.4499785   0.1499785), wk =   0.0101010
        k(   33) = (   0.1500216  -0.3499784   0.1499784), wk =   0.0101010
        k(   34) = (   0.1500216  -0.3499784   0.2499785), wk =   0.0101010
        k(   35) = (   0.2500215   0.2500215   0.2499784), wk =   0.0101010
        k(   36) = (   0.2500215   0.2500215   0.3499784), wk =   0.0101010
        k(   37) = (   0.2500215   0.2500215   0.4499784), wk =   0.0101010
        k(   38) = (   0.2500215   0.3500215   0.4499784), wk =   0.0101010
        k(   39) = (   0.2500216   0.3500216  -0.4500216), wk =   0.0101010
        k(   40) = (   0.2500216  -0.2499784   0.2499784), wk =   0.0101010
        k(   41) = (   0.3500215   0.3500215   0.3499784), wk =   0.0101010
        k(   42) = (   0.3500216   0.3500216   0.4499785), wk =   0.0101010
        k(   43) = (   0.3500216   0.4500216  -0.4500216), wk =   0.0101010
        k(   44) = (   0.4500215   0.4500215   0.4499785), wk =   0.0101010
        k(   45) = (   0.0500215   0.0500215  -0.0500215), wk =   0.0101010
        k(   46) = (   0.0500215   0.1500216  -0.0500215), wk =   0.0101010
        k(   47) = (   0.0500215  -0.1499785  -0.1500216), wk =   0.0101010
        k(   48) = (   0.0500215   0.2500216  -0.0500215), wk =   0.0101010
        k(   49) = (   0.0500215  -0.2499784  -0.2500216), wk =   0.0101010
        k(   50) = (   0.0500215   0.3500216  -0.0500215), wk =   0.0101010
        k(   51) = (   0.0500216  -0.3499784  -0.3500216), wk =   0.0101010
        k(   52) = (   0.0500216   0.4500216  -0.0500216), wk =   0.0101010
        k(   53) = (   0.0500215  -0.4499785  -0.4500215), wk =   0.0101010
        k(   54) = (   0.0500215   0.1500216  -0.1500216), wk =   0.0101010
        k(   55) = (   0.0500215   0.2500215  -0.1500216), wk =   0.0101010
        k(   56) = (   0.0500215  -0.3499785  -0.2500216), wk =   0.0101010
        k(   57) = (   0.0500216   0.3500216  -0.1500216), wk =   0.0101010
        k(   58) = (   0.0500215  -0.4499785  -0.3500216), wk =   0.0101010
        k(   59) = (   0.0500215  -0.5499785  -0.1500216), wk =   0.0101010
        k(   60) = (   0.0500215  -0.1499785  -0.2500216), wk =   0.0101010
        k(   61) = (   0.0500216   0.2500216  -0.2500216), wk =   0.0101010
        k(   62) = (   0.0500215  -0.6499784  -0.2500215), wk =   0.0101010
        k(   63) = (   0.0500215   0.4500215   0.6499784), wk =   0.0101010
        k(   64) = (   0.0500215  -0.2499784  -0.3500216), wk =   0.0101010
        k(   65) = (   0.0500215  -0.1499784  -0.3500216), wk =   0.0101010
        k(   66) = (   0.0500216  -0.3499785  -0.4500216), wk =   0.0101010
        k(   67) = (   0.0500215  -0.2499785  -0.4500215), wk =   0.0101010
        k(   68) = (   0.0500215  -0.1499785   0.2499784), wk =   0.0101010
        k(   69) = (   0.0500215   0.5500215   0.4499785), wk =   0.0101010
        k(   70) = (   0.0500216   0.6500215   0.4499784), wk =   0.0101010
        k(   71) = (   0.0500216  -0.1499784  -0.6500216), wk =   0.0101010
        k(   72) = (   0.0500216   0.7500216   0.4499784), wk =   0.0101010
        k(   73) = (   0.0500216   0.6500215   0.3499784), wk =   0.0101010
        k(   74) = (   0.1500216   0.1500216  -0.1500216), wk =   0.0101010
        k(   75) = (   0.1500216   0.2500215  -0.1500216), wk =   0.0101010
        k(   76) = (   0.1500216  -0.2499785  -0.2500216), wk =   0.0101010
        k(   77) = (   0.1500216   0.3500216  -0.1500216), wk =   0.0101010
        k(   78) = (   0.1500215  -0.3499784  -0.3500216), wk =   0.0101010
        k(   79) = (   0.1500216   0.4500216  -0.1500216), wk =   0.0101010
        k(   80) = (   0.1500215  -0.4499785  -0.4500215), wk =   0.0101010
        k(   81) = (   0.1500216   0.2500216  -0.2500216), wk =   0.0101010
        k(   82) = (   0.1500216   0.3500216  -0.2500216), wk =   0.0101010
        k(   83) = (   0.1500215  -0.4499785  -0.3500216), wk =   0.0101010
        k(   84) = (   0.1500215  -0.5499785  -0.2500215), wk =   0.0101010
        k(   85) = (   0.1500216  -0.6499784  -0.3500216), wk =   0.0101010
        k(   86) = (   0.1500216   0.7500216   0.4499784), wk =   0.0101010
        k(   87) = (   0.1500216   0.6500215   0.3499784), wk =   0.0101010
        k(   88) = (   0.1500216   0.7500216   0.3499784), wk =   0.0101010
        k(   89) = (   0.2500216   0.2500216  -0.2500216), wk =   0.0101010
        k(   90) = (   0.2500216   0.3500216  -0.2500216), wk =   0.0101010
        k(   91) = (   0.2500215  -0.3499784  -0.3500215), wk =   0.0101010
        k(   92) = (   0.2500216   0.4500216  -0.2500216), wk =   0.0101010
        k(   93) = (   0.2500215  -0.4499785  -0.4500215), wk =   0.0101010
        k(   94) = (   0.2500216   0.3500216  -0.3500216), wk =   0.0101010
        k(   95) = (   0.2500216  -0.5499785  -0.3500216), wk =   0.0101010
        k(   96) = (   0.3500216   0.3500216  -0.3500216), wk =   0.0101010
        k(   97) = (   0.3500216   0.4500216  -0.3500216), wk =   0.0101010
        k(   98) = (   0.3500216  -0.4499785  -0.4500215), wk =   0.0101010
        k(   99) = (   0.4500216   0.4500216  -0.4500216), wk =   0.0101010

     Dense  grid:     6363 G-vectors     FFT dimensions: (  25,  25,  25)

     Largest allocated arrays     est. size (Mb)     dimensions
        Kohn-Sham Wavefunctions         0.49 Mb     (   1590,   20)
        NL pseudopotentials             0.19 Mb     (    795,   16)
        Each V/rho on FFT grid          0.24 Mb     (  15625)
        Each G-vector array             0.05 Mb     (   6363)
        G-vector shells                 0.00 Mb     (     98)
     Largest temporary arrays     est. size (Mb)     dimensions
        Auxiliary wavefunctions         1.94 Mb     (   1590,   80)
        Each subspace H/S matrix        0.10 Mb     (  80,  80)
        Each <psi_i|beta_j> matrix      0.01 Mb     (     16,   2,   20)

     Check: negative/imaginary core charge=   -0.000002    0.000000

     The potential is recalculated from file :
     ./Fe_nscf_e70_k10s2_nb20_so.save/charge-density.dat

     Starting wfc are   18 randomized atomic wfcs

     total cpu time spent up to now is        0.9 secs

     per-process dynamical memory:    13.0 Mb

     Band Structure Calculation
     Davidson diagonalization with overlap

     Computing kpt #:     1
     total cpu time spent up to now is        1.5 secs

     Computing kpt #:     2
     total cpu time spent up to now is        2.1 secs

     Computing kpt #:     3
     total cpu time spent up to now is        2.7 secs

     Computing kpt #:     4
     total cpu time spent up to now is        3.2 secs

     Computing kpt #:     5
     total cpu time spent up to now is        3.8 secs

     Computing kpt #:     6
     total cpu time spent up to now is        4.4 secs

     Computing kpt #:     7
     total cpu time spent up to now is        4.9 secs

     Computing kpt #:     8
     total cpu time spent up to now is        5.3 secs

     Computing kpt #:     9
     total cpu time spent up to now is        5.7 secs

     Computing kpt #:    10
     total cpu time spent up to now is        6.0 secs

     Computing kpt #:    11
     total cpu time spent up to now is        6.3 secs

     Computing kpt #:    12
     total cpu time spent up to now is        6.6 secs

     Computing kpt #:    13
     total cpu time spent up to now is        7.0 secs

     Computing kpt #:    14
     total cpu time spent up to now is        7.3 secs

     Computing kpt #:    15
     total cpu time spent up to now is        7.7 secs

     Computing kpt #:    16
     total cpu time spent up to now is        8.0 secs

     Computing kpt #:    17
     total cpu time spent up to now is        8.3 secs

     Computing kpt #:    18
     total cpu time spent up to now is        8.7 secs

     Computing kpt #:    19
     total cpu time spent up to now is        9.0 secs

     Computing kpt #:    20
     total cpu time spent up to now is        9.3 secs

     Computing kpt #:    21
     total cpu time spent up to now is        9.7 secs

     Computing kpt #:    22
     total cpu time spent up to now is       10.0 secs

     Computing kpt #:    23
     total cpu time spent up to now is       10.5 secs

     Computing kpt #:    24
     total cpu time spent up to now is       10.9 secs

     Computing kpt #:    25
     total cpu time spent up to now is       11.2 secs

     Computing kpt #:    26
     total cpu time spent up to now is       11.5 secs

     Computing kpt #:    27
     total cpu time spent up to now is       12.0 secs

     Computing kpt #:    28
     total cpu time spent up to now is       12.4 secs

     Computing kpt #:    29
     total cpu time spent up to now is       12.9 secs

     Computing kpt #:    30
     total cpu time spent up to now is       13.2 secs

     Computing kpt #:    31
     total cpu time spent up to now is       13.5 secs

     Computing kpt #:    32
     total cpu time spent up to now is       13.9 secs

     Computing kpt #:    33
     total cpu time spent up to now is       14.2 secs

     Computing kpt #:    34
     total cpu time spent up to now is       14.7 secs

     Computing kpt #:    35
     total cpu time spent up to now is       15.0 secs

     Computing kpt #:    36
     total cpu time spent up to now is       15.4 secs

     Computing kpt #:    37
     total cpu time spent up to now is       15.8 secs

     Computing kpt #:    38
     total cpu time spent up to now is       16.1 secs

     Computing kpt #:    39
     total cpu time spent up to now is       16.5 secs

     Computing kpt #:    40
     total cpu time spent up to now is       17.6 secs

     Computing kpt #:    41
     total cpu time spent up to now is       17.9 secs

     Computing kpt #:    42
     total cpu time spent up to now is       18.2 secs

     Computing kpt #:    43
     total cpu time spent up to now is       18.5 secs

     Computing kpt #:    44
     total cpu time spent up to now is       18.8 secs

     Computing kpt #:    45
     total cpu time spent up to now is       19.2 secs

     Computing kpt #:    46
     total cpu time spent up to now is       19.5 secs

     Computing kpt #:    47
     total cpu time spent up to now is       19.9 secs

     Computing kpt #:    48
     total cpu time spent up to now is       20.3 secs

     Computing kpt #:    49
     total cpu time spent up to now is       20.6 secs

     Computing kpt #:    50
     total cpu time spent up to now is       20.9 secs

     Computing kpt #:    51
     total cpu time spent up to now is       21.3 secs

     Computing kpt #:    52
     total cpu time spent up to now is       21.6 secs

     Computing kpt #:    53
     total cpu time spent up to now is       21.9 secs

     Computing kpt #:    54
     total cpu time spent up to now is       22.2 secs

     Computing kpt #:    55
     total cpu time spent up to now is       22.5 secs

     Computing kpt #:    56
     total cpu time spent up to now is       22.9 secs

     Computing kpt #:    57
     total cpu time spent up to now is       23.2 secs

     Computing kpt #:    58
     total cpu time spent up to now is       23.5 secs

     Computing kpt #:    59
     total cpu time spent up to now is       23.8 secs

     Computing kpt #:    60
     total cpu time spent up to now is       24.2 secs

     Computing kpt #:    61
     total cpu time spent up to now is       24.5 secs

     Computing kpt #:    62
     total cpu time spent up to now is       24.8 secs

     Computing kpt #:    63
     total cpu time spent up to now is       25.1 secs

     Computing kpt #:    64
     total cpu time spent up to now is       25.4 secs

     Computing kpt #:    65
     total cpu time spent up to now is       25.7 secs

     Computing kpt #:    66
     total cpu time spent up to now is       26.0 secs

     Computing kpt #:    67
     total cpu time spent up to now is       26.4 secs

     Computing kpt #:    68
     total cpu time spent up to now is       26.7 secs

     Computing kpt #:    69
     total cpu time spent up to now is       27.0 secs

     Computing kpt #:    70
     total cpu time spent up to now is       27.3 secs

     Computing kpt #:    71
     total cpu time spent up to now is       27.6 secs

     Computing kpt #:    72
     total cpu time spent up to now is       27.9 secs

     Computing kpt #:    73
     total cpu time spent up to now is       28.2 secs

     Computing kpt #:    74
     total cpu time spent up to now is       28.5 secs

     Computing kpt #:    75
     total cpu time spent up to now is       28.9 secs

     Computing kpt #:    76
     total cpu time spent up to now is       29.2 secs

     Computing kpt #:    77
     total cpu time spent up to now is       29.5 secs

     Computing kpt #:    78
     total cpu time spent up to now is       29.8 secs

     Computing kpt #:    79
     total cpu time spent up to now is       30.1 secs

     Computing kpt #:    80
     total cpu time spent up to now is       30.5 secs

     Computing kpt #:    81
     total cpu time spent up to now is       30.8 secs

     Computing kpt #:    82
     total cpu time spent up to now is       31.1 secs

     Computing kpt #:    83
     total cpu time spent up to now is       31.4 secs

     Computing kpt #:    84
     total cpu time spent up to now is       31.7 secs

     Computing kpt #:    85
     total cpu time spent up to now is       32.1 secs

     Computing kpt #:    86
     total cpu time spent up to now is       32.7 secs

     Computing kpt #:    87
     total cpu time spent up to now is       33.1 secs

     Computing kpt #:    88
     total cpu time spent up to now is       33.5 secs

     Computing kpt #:    89
     total cpu time spent up to now is       33.8 secs

     Computing kpt #:    90
     total cpu time spent up to now is       34.1 secs

     Computing kpt #:    91
     total cpu time spent up to now is       34.4 secs

     Computing kpt #:    92
     total cpu time spent up to now is       34.7 secs

     Computing kpt #:    93
     total cpu time spent up to now is       35.0 secs

     Computing kpt #:    94
     total cpu time spent up to now is       35.3 secs

     Computing kpt #:    95
     total cpu time spent up to now is       35.6 secs

     Computing kpt #:    96
     total cpu time spent up to now is       35.9 secs

     Computing kpt #:    97
     total cpu time spent up to now is       36.2 secs

     Computing kpt #:    98
     total cpu time spent up to now is       36.5 secs

     Computing kpt #:    99
     total cpu time spent up to now is       36.8 secs

     ethr =  1.25E-10,  avg # of iterations = 14.2

     total cpu time spent up to now is       36.8 secs

     End of band structure calculation

          k = 0.0000 0.0000 0.1000     band energies (ev):

     5.2844   5.4482  11.2323  11.2907  11.3141  12.3567  12.4723  13.5256
    13.5786  13.6167  15.4113  15.5722  38.3217  38.6093  39.2522  39.2565
    39.5790  39.5849  42.1066  42.6699

          k = 0.0000-0.1000 0.2000     band energies (ev):

     6.0614   6.2336  11.0872  11.2275  11.7056  12.1691  12.5329  13.3377
    13.4834  14.0436  15.1413  15.6438  35.2701  35.5097  37.5674  37.6197
    38.9605  39.0649  41.5444  41.8158

          k = 0.0000-0.2000 0.3000     band energies (ev):

     7.4133   7.6733  10.7940  11.1083  12.1681  12.4287  12.6039  12.9839
    13.2284  14.8313  15.0403  15.7173  30.1138  30.7859  35.1135  35.2222
    36.7967  37.5168  40.9581  41.1393

          k = 0.0000-0.3000 0.4000     band energies (ev):

     8.5745   9.3423  10.5106  11.4941  12.3998  12.6402  12.8284  13.0798
    13.2458  15.1796  15.7476  15.8208  25.2678  26.2590  33.2351  33.3261
    34.3881  35.1551  40.8122  40.9992

          k = 0.0000-0.4000 0.5000     band energies (ev):

     8.8437  10.3077  10.3409  12.1358  12.4035  12.4947  13.5487  13.8041
    14.0143  15.3026  16.0360  16.3978  21.6619  23.0650  32.2320  32.2948
    32.9367  33.6438  40.7924  41.0374

          k =-0.1000 0.1000 0.1000     band energies (ev):

     5.6793   5.8456  11.1307  11.1524  11.6311  12.3810  12.3965  13.3968
    13.4189  13.9567  15.4467  15.4569  37.2780  37.2827  37.3142  37.3222
    39.7610  40.1507  40.3866  41.4724

          k =-0.1000-0.1000 0.3000     band energies (ev):

     7.1234   7.3395  11.0151  11.0208  11.9848  12.2502  12.6731  13.2119
    13.2542  14.6079  14.8472  15.7869  32.8251  33.2209  33.3214  33.8788
    38.4125  39.0616  39.0828  39.1374

          k =-0.1000-0.2000 0.4000     band energies (ev):

     8.4565   8.9239  10.6758  10.9565  12.1188  12.7440  12.8295  12.9954
    13.2932  14.8679  15.4852  15.9709  27.9306  28.7216  31.0884  31.6555
    35.8820  36.3775  39.7286  39.9100

          k =-0.1000-0.3000 0.5000     band energies (ev):

     9.0926  10.3197  10.4997  11.2551  12.3397  12.5807  12.9070  13.1378
    14.7095  15.0992  15.8987  16.8110  23.4648  24.5850  29.6726  30.2519
    34.1538  34.5583  40.4758  40.7384

          k =-0.1000 0.6000-0.4000     band energies (ev):

     9.1335  10.4420  10.7462  11.4901  12.3641  12.5274  13.0804  13.4440
    15.1751  16.0036  16.0813  17.5705  21.0952  22.5539  29.1405  29.7133
    33.5525  33.9189  40.7788  41.0888

          k =-0.2000 0.2000 0.1000     band energies (ev):

     6.7853   6.9805  10.8629  10.9969  12.2675  12.2897  12.4709  13.0700
    13.1962  14.6408  15.2714  15.5475  32.7132  33.1790  35.0868  35.2657
    36.9341  37.8516  40.4954  40.7979

          k =-0.2000-0.2000 0.5000     band energies (ev):

     9.3997  10.3344  10.3682  10.9522  12.2417  12.4049  12.8516  12.9325
    14.9527  14.9788  15.7748  17.0730  26.1355  26.3886  26.9870  27.2124
    35.3080  35.8062  39.6245  39.7009

          k =-0.2000 0.7000-0.4000     band energies (ev):

     9.6678  10.3764  10.8464  11.2903  12.3012  12.4609  12.6569  13.0674
    15.1993  15.8097  17.3487  18.8773  22.2011  23.3698  25.3283  26.1474
    34.7144  35.1931  40.5012  40.6226

          k =-0.3000 0.3000 0.1000     band energies (ev):

     8.1952   8.6169  10.5551  11.0315  12.3427  12.5455  12.6990  12.9265
    13.1990  15.2705  15.5716  15.6610  27.6362  28.4444  33.0590  33.2581
    34.4305  35.2627  41.0043  41.1040

          k =-0.3000 0.2000 0.2000     band energies (ev):

     8.0539   8.3509  10.6412  10.6729  12.3080  12.5473  12.7665  12.7820
    13.2476  15.2717  15.5555  15.6718  30.3669  30.7194  30.9068  31.3732
    33.8269  34.5039  41.7365  42.0194

          k =-0.3000 0.7000-0.3000     band energies (ev):

    10.1359  10.3466  10.3749  12.0235  12.1633  12.1782  12.7840  12.8150
    15.5106  15.5456  20.4557  20.4846  21.6378  21.6451  22.8963  23.9526
    34.9609  35.5140  41.7459  41.7525

          k =-0.4000 0.4000 0.1000     band energies (ev):

     8.8692  10.0490  10.3247  12.0018  12.3766  12.5171  12.6177  13.1311
    14.3032  15.3743  15.7532  16.5220  23.2523  24.4144  31.6959  31.8632
    32.6301  33.3930  41.1915  41.2453

          k =-0.4000 0.3000 0.2000     band energies (ev):

     9.1600   9.9499  10.3765  10.8428  12.3663  12.4461  12.5981  12.6601
    14.6185  15.3445  15.7492  16.7811  25.7119  26.5957  28.8811  29.5078
    32.0838  32.6669  42.5340  42.6705

          k = 0.5000-0.5000 0.1000     band energies (ev):

     8.9252  10.2400  10.4752  12.2865  12.5195  12.6401  12.7723  13.6230
    15.2169  15.4209  15.7936  17.0296  21.0494  22.5531  31.2183  31.3668
    31.9531  32.6776  41.2087  41.3142

          k = 0.5000-0.6000 0.2000     band energies (ev):

     9.3324  10.2530  10.8441  11.5338  12.2444  12.5307  12.7504  12.8649
    15.4537  15.8062  16.4197  18.0571  21.9125  23.1779  27.9393  28.5593
    31.1551  31.6939  42.8701  42.8950

          k = 0.5000-0.7000 0.3000     band energies (ev):

     9.7544  10.2815  10.8191  11.1596  12.1488  12.4252  12.5399  12.7412
    15.4566  15.7817  16.8162  18.5193  24.1340  24.6964  25.0429  25.5899
    31.0663  31.6340  43.7721  43.8971

          k = 0.4000-0.6000 0.3000     band energies (ev):

     9.8166  10.3217  10.8795  11.5423  12.1562  12.4193  12.6103  12.7524
    15.5620  15.7475  19.0028  20.2492  21.3406  22.5573  24.0534  24.9450
    30.7343  31.3099  44.4575  44.5438

          k = 0.0000 0.0000 0.3000     band energies (ev):

     6.7909   6.9852  11.2930  11.3527  11.6496  11.7750  12.7378  13.5370
    13.5893  14.0658  14.5543  15.8627  35.2758  35.3169  36.3300  36.4541
    36.5331  36.8908  36.9826  37.0781

          k = 0.0000-0.1000 0.4000     band energies (ev):

     8.0198   8.3446  11.0097  11.1805  11.7470  12.3452  13.0026  13.3406
    13.3879  14.3061  14.7470  16.0295  30.7411  31.4012  33.8303  34.1392
    34.4498  34.5229  37.4462  37.8788

          k = 0.0000-0.2000 0.5000     band energies (ev):

     9.0311   9.8951  10.7341  10.9502  12.1101  12.8147  13.0930  13.1784
    13.8807  14.6567  15.6637  16.3782  25.7912  26.7251  31.6574  32.3600
    32.8029  33.1277  39.3788  39.7261

          k = 0.0000-0.3000 0.6000     band energies (ev):

     9.2265  10.7984  10.8154  10.9152  12.1789  12.7000  12.9308  13.7506
    14.8269  15.7900  16.3364  17.3883  21.9016  23.1987  30.3613  31.0226
    32.0811  32.4059  41.8664  42.0766

          k =-0.1000-0.1000 0.5000     band energies (ev):

     9.0413   9.7271  10.5122  11.2972  11.8912  12.8181  12.8454  13.4422
    13.8812  14.3441  15.3696  16.4185  28.7095  28.8165  29.4653  29.5625
    35.5524  35.7625  36.0421  36.1078

          k =-0.1000-0.2000 0.6000     band energies (ev):

     9.5453  10.2700  10.9375  11.1135  12.2098  12.3426  13.2284  13.3254
    14.7174  15.8635  15.9305  17.6918  24.1322  25.1295  27.3169  28.0650
    34.4213  34.8395  38.0243  38.3600

          k =-0.1000 0.7000-0.3000     band energies (ev):

     9.5329  10.4081  10.9446  11.3644  12.2476  12.3173  13.0629  13.5775
    14.8384  16.1523  17.8872  19.1509  21.3034  22.6091  26.7606  27.4875
    34.0012  34.4139  40.6138  40.6789

          k =-0.2000 0.8000-0.3000     band energies (ev):

     9.9384   9.9644  10.8664  11.7529  11.9855  12.6991  12.9177  13.2226
    15.2133  15.7803  18.8367  20.1345  22.5974  23.6185  23.6339  24.5630
    37.0331  37.3753  37.5382  37.5924

          k =-0.3000 0.3000 0.3000     band energies (ev):

     9.3043   9.8100  10.3692  10.3719  12.3625  12.3787  12.5250  12.5518
    14.6442  15.5718  15.6059  16.8213  28.4785  28.5320  28.9177  29.0847
    29.1182  29.8485  44.1488  44.5375

          k = 0.6000-0.6000 0.3000     band energies (ev):

     9.8291  10.2201  10.7371  11.0950  12.1473  12.2746  12.5757  12.6368
    15.6215  15.7647  16.6243  18.3758  24.1480  25.0752  27.3481  27.4602
    27.9466  28.2600  45.7872  46.0929

          k = 0.5000-0.5000 0.3000     band energies (ev):

     9.7623  10.1739  11.1687  11.3834  12.0737  12.5398  12.6073  12.6718
    15.6528  15.8189  18.4735  19.7378  21.4064  22.6772  26.9533  26.9799
    27.5521  27.7629  46.2158  46.4502

          k = 0.5000-0.6000 0.4000     band energies (ev):

    10.0544  10.3283  10.6581  11.7695  12.0521  12.1760  12.6345  12.6706
    15.7407  15.8070  19.3395  20.6148  22.8749  23.7066  23.8088  24.6403
    26.6663  27.3785  48.3008  48.5735

          k = 0.0000 0.0000 0.5000     band energies (ev):

     8.8884   9.4873  10.6441  11.6564  11.7195  12.4083  13.1933  13.6564
    13.8894  13.9284  14.8318  16.3576  30.9942  31.1502  31.7082  31.8608
    33.0153  33.1755  33.4019  33.7405

          k = 0.0000-0.1000 0.6000     band energies (ev):

     9.4430  10.1161  10.6490  11.7242  12.0504  12.4492  13.0637  13.9384
    14.3576  15.1898  15.5521  17.1430  26.6987  27.5121  28.8423  29.5260
    32.3122  32.8713  34.6009  35.0988

          k = 0.0000-0.2000 0.7000     band energies (ev):

     9.4964   9.9482  11.3536  11.6484  11.9660  12.2138  13.6589  13.8576
    14.5692  16.2367  17.7513  19.0161  22.5096  23.5732  27.5241  28.1474
    31.9048  32.5070  37.3035  37.6402

          k =-0.1000-0.1000 0.7000     band energies (ev):

     9.5629   9.6949  11.2917  11.7977  11.9185  12.5736  13.3765  13.9993
    14.9216  15.9050  17.5575  18.8882  24.9990  25.2705  25.8044  26.0258
    33.7256  34.0302  34.1877  34.6628

          k =-0.1000 0.8000-0.2000     band energies (ev):

     9.4949   9.6225  11.5804  11.6360  11.7516  12.8408  13.5310  13.9052
    15.2429  16.0743  20.1831  21.1425  21.8380  22.8473  24.5512  25.2832
    33.6044  34.1425  36.2981  36.5811

          k = 0.5000-0.5000 0.5000     band energies (ev):

    10.3566  10.3675  10.3785  12.0284  12.0355  12.0368  12.6633  12.6649
    15.8312  15.8317  22.4107  22.4450  22.4815  23.3628  23.3867  23.4089
    23.8390  24.7787  52.9218  52.9230

          k = 0.0000 0.0000 0.7000     band energies (ev):

     9.3987   9.6186  11.1007  11.9085  12.4785  12.5484  13.1099  14.7626
    14.8336  15.6188  17.0712  18.3919  26.4280  26.5952  27.0526  27.2150
    31.8382  32.0845  32.5008  32.8591

          k = 0.0000-0.1000 0.8000     band energies (ev):

     9.2667   9.3158  11.2823  11.4822  12.6747  12.8714  13.5788  15.0187
    15.2160  16.1422  19.7896  20.6677  23.4411  24.1418  25.1140  25.6422
    31.7422  32.4994  33.4657  34.1033

          k =-0.1000 0.9000-0.1000     band energies (ev):

     9.1545   9.1564  11.2735  11.2749  12.7789  13.4571  13.4865  15.1181
    15.9762  16.0033  22.3973  22.4784  23.0030  23.0985  23.1925  23.7803
    32.8974  32.9084  33.4861  33.4965

          k = 0.0000 0.0000 0.9000     band energies (ev):

     8.9971   9.0015  11.1040  11.1560  13.4103  13.4798  13.5559  15.9186
    15.9904  16.1218  21.9476  22.4472  23.5427  23.7048  23.9225  24.0842
    31.3689  31.8807  32.1774  32.6899

          k = 0.0000 0.1000 0.0000     band energies (ev):

     5.2846   5.4484  11.2489  11.2597  11.3290  12.3510  12.4780  13.5429
    13.5475  13.6303  15.4101  15.5732  38.3209  38.6086  39.2543  39.2544
    39.5818  39.5819  42.1048  42.6705

          k =-0.1000 0.2000 0.0000     band energies (ev):

     6.0618   6.2341  11.0882  11.2260  11.7088  12.1610  12.5396  13.3397
    13.4782  14.0466  15.1392  15.6449  35.2680  35.5079  37.5667  37.6185
    38.9598  39.0647  41.5467  41.8092

          k = 0.2000 0.0000-0.1000     band energies (ev):

     6.0615   6.2338  11.0879  11.2265  11.7079  12.1627  12.5384  13.3369
    13.4822  14.0452  15.1399  15.6446  35.2690  35.5087  37.5670  37.6195
    38.9607  39.0651  41.5464  41.8223

          k =-0.2000 0.3000 0.0000     band energies (ev):

     7.4138   7.6740  10.7942  11.1083  12.1656  12.4241  12.6127  12.9846
    13.2256  14.8372  15.0337  15.7187  30.1118  30.7838  35.1130  35.2211
    36.7953  37.5159  40.9580  41.1389

          k = 0.3000 0.0000-0.2000     band energies (ev):

     7.4135   7.6736  10.7940  11.1084  12.1688  12.4189  12.6150  12.9815
    13.2286  14.8349  15.0359  15.7183  30.1126  30.7848  35.1131  35.2220
    36.7968  37.5170  40.9575  41.1381

          k =-0.3000 0.4000 0.0000     band energies (ev):

     8.5747   9.3429  10.5107  11.4940  12.3907  12.6478  12.8402  13.0653
    13.2512  15.1782  15.7489  15.8211  25.2661  26.2573  33.2352  33.3249
    34.3869  35.1543  40.8121  40.9993

          k = 0.4000 0.0000-0.3000     band energies (ev):

     8.5746   9.3426  10.5106  11.4939  12.4010  12.6404  12.8246  13.0782
    13.2506  15.1806  15.7358  15.8315  25.2667  26.2581  33.2348  33.3259
    34.3881  35.1552  40.8117  40.9986

          k =-0.4000 0.5000 0.0000     band energies (ev):

     8.8436  10.3078  10.3410  12.1299  12.4007  12.5047  13.5470  13.8044
    14.0156  15.3008  16.0385  16.3970  21.6612  23.0642  32.2332  32.2933
    32.9361  33.6435  40.7923  41.0375

          k = 0.5000 0.0000-0.4000     band energies (ev):

     8.8437  10.3078  10.3408  12.1331  12.4164  12.4847  13.5470  13.8039
    14.0168  15.3027  16.0341  16.3991  21.6613  23.0646  32.2319  32.2947
    32.9370  33.6440  40.7919  41.0369

          k =-0.1000 0.3000-0.1000     band energies (ev):

     7.1239   7.3401  11.0146  11.0217  11.9852  12.2438  12.6809  13.2119
    13.2515  14.6133  14.8414  15.7880  32.8235  33.2202  33.3191  33.8775
    38.4117  39.0465  39.1099  39.1240

          k =-0.2000 0.4000-0.1000     band energies (ev):

     8.4568   8.9246  10.6762  10.9563  12.1151  12.7459  12.8347  12.9912
    13.2947  14.8676  15.4841  15.9725  27.9287  28.7195  31.0876  31.6547
    35.8811  36.3764  39.7289  39.9104

          k = 0.4000-0.1000-0.2000     band energies (ev):

     8.4564   8.9240  10.6762  10.9563  12.1167  12.7464  12.8280  12.9951
    13.2950  14.8685  15.4825  15.9728  27.9293  28.7203  31.0899  31.6568
    35.8812  36.3766  39.7293  39.9109

          k =-0.3000 0.5000-0.1000     band energies (ev):

     9.0925  10.3203  10.5000  11.2545  12.3354  12.5849  12.9074  13.1384
    14.7111  15.0977  15.8991  16.8118  23.4634  24.5835  29.6721  30.2514
    34.1534  34.5577  40.4759  40.7386

          k = 0.5000-0.1000-0.3000     band energies (ev):

     9.0924  10.3198  10.5000  11.2547  12.3413  12.5788  12.9057  13.1398
    14.7105  15.0995  15.8971  16.8117  23.4637  24.5840  29.6741  30.2533
    34.1531  34.5575  40.4762  40.7389

          k = 0.6000-0.4000-0.1000     band energies (ev):

     9.1334  10.4421  10.7466  11.4889  12.3573  12.5365  13.0795  13.4435
    15.1745  16.0005  16.0849  17.5705  21.0955  22.5539  29.1404  29.7132
    33.5525  33.9189  40.7786  41.0888

          k = 0.2000 0.1000-0.2000     band energies (ev):

     6.7852   6.9804  10.8628  10.9968  12.2528  12.3126  12.4623  13.0681
    13.1989  14.6396  15.2740  15.5458  32.7144  33.1801  35.0861  35.2653
    36.9337  37.8510  40.4957  40.7983

          k =-0.2000 0.5000-0.2000     band energies (ev):

     9.3999  10.3355  10.3682  10.9518  12.2408  12.4015  12.8642  12.9243
    14.9524  14.9808  15.7737  17.0742  26.1357  26.3845  26.9884  27.2098
    35.3078  35.8059  39.6246  39.7011

          k = 0.7000-0.4000-0.2000     band energies (ev):

     9.6676  10.3771  10.8462  11.2900  12.3009  12.4572  12.6616  13.0671
    15.1987  15.8102  17.3497  18.8782  22.1999  23.3685  25.3280  26.1471
    34.7143  35.1929  40.5014  40.6229

          k =-0.4000-0.2000 0.7000     band energies (ev):

     9.6675  10.3770  10.8461  11.2902  12.3031  12.4562  12.6594  13.0681
    15.1989  15.8102  17.3483  18.8771  22.2001  23.3689  25.3299  26.1487
    34.7141  35.1927  40.5012  40.6227

          k = 0.3000 0.1000-0.3000     band energies (ev):

     8.1952   8.6167  10.5550  11.0312  12.3539  12.5335  12.6919  12.9359
    13.1973  15.2713  15.5718  15.6600  27.6371  28.4455  33.0579  33.2582
    34.4300  35.2620  41.0048  41.1048

          k = 0.2000 0.2000-0.3000     band energies (ev):

     8.0539   8.3509  10.6409  10.6731  12.3139  12.5379  12.7701  12.7823
    13.2472  15.2705  15.5618  15.6668  30.3680  30.7144  30.9115  31.3722
    33.8270  34.5040  41.7365  42.0195

          k = 0.4000 0.1000-0.4000     band energies (ev):

     8.8693  10.0489  10.3247  12.0008  12.3919  12.5124  12.6049  13.1325
    14.3039  15.3775  15.7497  16.5227  23.2529  24.4151  31.6944  31.8637
    32.6295  33.3923  41.1923  41.2459

          k = 0.3000 0.2000-0.4000     band energies (ev):

     9.1602   9.9499  10.3763  10.8425  12.3820  12.4395  12.5791  12.6696
    14.6186  15.3459  15.7482  16.7811  25.7129  26.5968  28.8796  29.5066
    32.0838  32.6669  42.5343  42.6710

          k = 0.2000-0.4000 0.3000     band energies (ev):

     9.1598   9.9493  10.3766  10.8424  12.3818  12.4329  12.5881  12.6675
    14.6180  15.3457  15.7478  16.7807  25.7136  26.5975  28.8817  29.5085
    32.0843  32.6676  42.5337  42.6703

          k =-0.5000 0.1000 0.5000     band energies (ev):

     8.9253  10.2401  10.4752  12.2939  12.5201  12.6276  12.7758  13.6225
    15.2193  15.4237  15.7893  17.0304  21.0491  22.5531  31.2162  31.3677
    31.9521  32.6767  41.2095  41.3149

          k =-0.6000 0.2000 0.5000     band energies (ev):

     9.3327  10.2530  10.8440  11.5333  12.2489  12.5300  12.7480  12.8627
    15.4567  15.8037  16.4200  18.0574  21.9130  23.1785  27.9376  28.5579
    31.1550  31.6939  42.8707  42.8957

          k = 0.2000 0.5000-0.6000     band energies (ev):

     9.3325  10.2531  10.8437  11.5334  12.2496  12.5280  12.7471  12.8653
    15.4561  15.8045  16.4186  18.0567  21.9134  23.1789  27.9395  28.5597
    31.1553  31.6942  42.8700  42.8950

          k =-0.7000 0.3000 0.5000     band energies (ev):

     9.7545  10.2812  10.8193  11.1594  12.1479  12.4424  12.5249  12.7400
    15.4584  15.7800  16.8164  18.5192  24.1342  24.6962  25.0431  25.5899
    31.0663  31.6340  43.7721  43.8972

          k =-0.6000 0.3000 0.4000     band energies (ev):

     9.8168  10.3218  10.8792  11.5421  12.1583  12.4197  12.6100  12.7502
    15.5639  15.7458  19.0037  20.2501  21.3405  22.5572  24.0521  24.9438
    30.7342  31.3098  44.4582  44.5447

          k = 0.0000 0.3000 0.0000     band energies (ev):

     6.7913   6.9857  11.3199  11.3206  11.6983  11.7273  12.7442  13.5580
    13.5615  14.0753  14.5488  15.8636  35.2749  35.3162  36.3706  36.3839
    36.5591  36.9239  36.9395  37.0858

          k =-0.1000 0.4000 0.0000     band energies (ev):

     8.0202   8.3453  11.0102  11.1813  11.7448  12.3416  13.0120  13.3362
    13.3883  14.3069  14.7452  16.0304  30.7391  31.3989  33.8292  34.1384
    34.4492  34.5219  37.4471  37.8794

          k = 0.4000 0.0000-0.1000     band energies (ev):

     8.0197   8.3447  11.0102  11.1811  11.7458  12.3405  13.0117  13.3413
    13.3832  14.3085  14.7440  16.0304  30.7398  31.3998  33.8292  34.1431
    34.4418  34.5283  37.4478  37.8802

          k =-0.2000 0.5000 0.0000     band energies (ev):

     9.0311   9.8957  10.7360  10.9483  12.1088  12.8097  13.1057  13.1721
    13.8834  14.6545  15.6639  16.3793  25.7894  26.7232  31.6564  32.3589
    32.8029  33.1270  39.3798  39.7270

          k = 0.5000 0.0000-0.2000     band energies (ev):

     9.0310   9.8953  10.7359  10.9480  12.1108  12.8106  13.0939  13.1802
    13.8830  14.6573  15.6611  16.3798  25.7899  26.7239  31.6576  32.3606
    32.8025  33.1276  39.3803  39.7276

          k =-0.3000 0.6000 0.0000     band energies (ev):

     9.2263  10.7998  10.8207  10.9084  12.1786  12.6987  12.9338  13.7497
    14.8269  15.7908  16.3366  17.3891  21.9007  23.1976  30.3608  31.0222
    32.0812  32.4055  41.8676  42.0776

          k = 0.6000 0.0000-0.3000     band energies (ev):

     9.2264  10.8013  10.8152  10.9123  12.1797  12.6998  12.9300  13.7511
    14.8270  15.7918  16.3344  17.3889  21.9008  23.1980  30.3618  31.0231
    32.0811  32.4057  41.8679  42.0780

          k =-0.1000 0.5000-0.1000     band energies (ev):

     9.0416   9.7277  10.5123  11.2974  11.8901  12.7862  12.8774  13.4431
    13.8839  14.3420  15.3688  16.4198  28.7246  28.7943  29.4843  29.5448
    35.5542  35.7580  36.0545  36.0984

          k =-0.2000 0.6000-0.1000     band energies (ev):

     9.5451  10.2706  10.9381  11.1128  12.2123  12.3377  13.2388  13.3175
    14.7173  15.8673  15.9281  17.6930  24.1307  25.1277  27.3164  28.0645
    34.4209  34.8390  38.0255  38.3610

          k = 0.6000-0.1000-0.2000     band energies (ev):

     9.5451  10.2704  10.9381  11.1124  12.2111  12.3404  13.2302  13.3246
    14.7173  15.8818  15.9124  17.6922  24.1310  25.1282  27.3186  28.0663
    34.4200  34.8381  38.0259  38.3615

          k = 0.7000-0.3000-0.1000     band energies (ev):

     9.5326  10.4088  10.9443  11.3639  12.2625  12.3007  13.0668  13.5758
    14.8381  16.1524  17.8873  19.1511  21.3037  22.6091  26.7604  27.4875
    34.0012  34.4138  40.6137  40.6792

          k = 0.8000-0.3000-0.2000     band energies (ev):

     9.9352   9.9678  10.8661  11.7532  11.9853  12.6965  12.9216  13.2213
    15.2133  15.7803  18.8383  20.1359  22.5966  23.5945  23.6559  24.5619
    37.0345  37.3713  37.5528  37.5827

          k =-0.6000 0.3000 0.6000     band energies (ev):

     9.8293  10.2202  10.7368  11.0947  12.1507  12.2729  12.5819  12.6288
    15.6252  15.7614  16.6244  18.3759  24.1491  25.0762  27.3407  27.4687
    27.9417  28.2608  45.7881  46.0939

          k =-0.5000 0.3000 0.5000     band energies (ev):

     9.7624  10.1740  11.1687  11.3823  12.0765  12.5430  12.6214  12.6522
    15.6571  15.8151  18.4743  19.7385  21.4064  22.6773  26.9325  27.0016
    27.5455  27.7649  46.2171  46.4516

          k =-0.6000 0.4000 0.5000     band energies (ev):

    10.0544  10.3282  10.6582  11.7689  12.0508  12.1794  12.6399  12.6634
    15.7440  15.8038  19.3395  20.6148  22.8751  23.7044  23.8110  24.6402
    26.6663  27.3785  48.3008  48.5735

          k = 0.0000 0.5000 0.0000     band energies (ev):

     8.8885   9.4879  10.6440  11.6866  11.6891  12.4034  13.1971  13.6722
    13.8969  13.9069  14.8317  16.3586  31.0626  31.0626  31.7918  31.7920
    33.0147  33.1752  33.4014  33.7402

          k =-0.1000 0.6000 0.0000     band energies (ev):

     9.4429  10.1161  10.6496  11.7255  12.0494  12.4441  13.0681  13.9404
    14.3565  15.1898  15.5527  17.1441  26.6974  27.5091  28.8425  29.5246
    32.3119  32.8709  34.6020  35.0998

          k = 0.6000 0.0000-0.1000     band energies (ev):

     9.4429  10.1161  10.6493  11.7244  12.0499  12.4459  13.0664  13.9400
    14.3562  15.1923  15.5498  17.1438  26.6979  27.5099  28.8437  29.5256
    32.3122  32.8712  34.6023  35.1001

          k =-0.2000 0.7000 0.0000     band energies (ev):

     9.4960   9.9486  11.3535  11.6480  11.9702  12.2084  13.6643  13.8548
    14.5679  16.2371  17.7526  19.0174  22.5084  23.5717  27.5237  28.1471
    31.9046  32.5068  37.3048  37.6413

          k = 0.7000 0.0000-0.2000     band energies (ev):

     9.4964   9.9483  11.3548  11.6458  11.9671  12.2136  13.6591  13.8573
    14.5692  16.2369  17.7514  19.0165  22.5086  23.5722  27.5247  28.1478
    31.9048  32.5069  37.3050  37.6416

          k =-0.1000 0.7000-0.1000     band energies (ev):

     9.5628   9.6949  11.2927  11.7951  11.9202  12.5723  13.3781  13.9995
    14.9212  15.9053  17.5588  18.8896  25.0077  25.2503  25.8246  26.0125
    33.7264  34.0284  34.1900  34.6631

          k = 0.8000-0.2000-0.1000     band energies (ev):

     9.4945   9.6229  11.5781  11.6388  11.7516  12.8389  13.5336  13.9043
    15.2423  16.0746  20.1829  21.1434  21.8377  22.8471  24.5511  25.2831
    33.6042  34.1424  36.2982  36.5813

          k = 0.0000 0.7000 0.0000     band energies (ev):

     9.3986   9.6182  11.1014  11.9070  12.5120  12.5131  13.1127  14.7971
    14.7990  15.6197  17.0722  18.3930  26.4998  26.5001  27.1437  27.1437
    31.8377  32.0846  32.5005  32.8591

          k =-0.1000 0.8000 0.0000     band energies (ev):

     9.2665   9.3158  11.2831  11.4813  12.6785  12.8665  13.5802  15.0231
    15.2111  16.1429  19.7910  20.6693  23.4404  24.1385  25.1155  25.6409
    31.7419  32.4992  33.4668  34.1043

          k = 0.8000 0.0000-0.1000     band energies (ev):

     9.2669   9.3156  11.2832  11.4812  12.6762  12.8693  13.5793  15.0204
    15.2137  16.1425  19.7899  20.6682  23.4407  24.1390  25.1163  25.6415
    31.7422  32.4994  33.4667  34.1043

          k = 0.0000 0.9000 0.0000     band energies (ev):

     8.9973   9.0012  11.1047  11.1552  13.4356  13.4453  13.5655  15.9477
    15.9551  16.1283  21.9479  22.4496  23.6050  23.6068  24.0198  24.0202
    31.3686  31.8807  32.1772  32.6897

     Writing output data file Fe_nscf_e70_k10s2_nb20_so.save

     init_run     :      0.64s CPU      0.65s WALL (       1 calls)
     electrons    :     34.90s CPU     35.95s WALL (       1 calls)

     Called by init_run:
     wfcinit      :      0.00s CPU      0.00s WALL (       1 calls)
     potinit      :      0.07s CPU      0.07s WALL (       1 calls)

     Called by electrons:
     c_bands      :     34.89s CPU     35.91s WALL (       1 calls)
     v_of_rho     :      0.06s CPU      0.06s WALL (       1 calls)
     v_h          :      0.00s CPU      0.00s WALL (       1 calls)
     v_xc         :      0.06s CPU      0.06s WALL (       1 calls)

     Called by c_bands:
     init_us_2    :      0.04s CPU      0.05s WALL (      99 calls)
     cegterg      :     32.10s CPU     32.31s WALL (     103 calls)

     Called by sum_band:

     Called by *egterg:
     h_psi        :     19.36s CPU     19.56s WALL (    1606 calls)
     g_psi        :      0.27s CPU      0.27s WALL (    1404 calls)
     cdiaghg      :      2.92s CPU      2.91s WALL (    1503 calls)
     cegterg:over :      5.00s CPU      5.03s WALL (    1404 calls)
     cegterg:upda :      3.97s CPU      3.98s WALL (    1404 calls)
     cegterg:last :      1.93s CPU      1.94s WALL (     307 calls)

     Called by h_psi:
     h_psi:vloc   :     16.85s CPU     17.03s WALL (    1606 calls)
     h_psi:vnl    :      2.40s CPU      2.42s WALL (    1606 calls)
     add_vuspsi   :      1.20s CPU      1.21s WALL (    1606 calls)

     General routines
     calbec       :      1.20s CPU      1.20s WALL (    1606 calls)
     fft          :      0.01s CPU      0.01s WALL (      23 calls)
     fftw         :     13.21s CPU     13.30s WALL (   77116 calls)
     davcio       :      0.05s CPU      0.35s WALL (     198 calls)

     Parallel routines
     fft_scatter  :      1.22s CPU      1.22s WALL (   77139 calls)

     PWSCF        :    36.60s CPU        37.79s WALL


   This run was terminated on:  23:45:57  30Jun2015            

=------------------------------------------------------------------------------=
   JOB DONE.
=------------------------------------------------------------------------------=
