  ABINIT 
  
  Give name for formatted input file: 
input/LiF_nscf.in
  Give name for formatted output file:
output/LiF_nscf.out
  Give root name for generic input files:
io_files/LiF_scf_o
  Give root name for generic output files:
io_files/LiF_nscf_o
  Give root name for generic temporary files:
io_files/LiF_nscf_tmp

.Version 7.4.1 of ABINIT 
.(MPI version, prepared for a x86_64_linux_gnu4.8 computer) 

.Copyright (C) 1998-2013 ABINIT group . 
 ABINIT comes with ABSOLUTELY NO WARRANTY.
 It is free software, and you are welcome to redistribute it
 under certain conditions (GNU General Public License,
 see ~abinit/COPYING or http://www.gnu.org/copyleft/gpl.txt).

 ABINIT is a project of the Universite Catholique de Louvain,
 Corning Inc. and other collaborators, see ~abinit/doc/developers/contributors.txt .
 Please read ~abinit/doc/users/acknowledgments.html for suggested
 acknowledgments of the ABINIT effort.
 For more information, see http://www.abinit.org .

.Starting date : Mon 27 Jul 2015.
- ( at 12h28 )
  

 ++++++++++++++++++++++++++++++++++++++++++++++++++++++++++++++++++++++++++++++

 === Build Information === 
  Version       : 7.4.1
  Build target  : x86_64_linux_gnu4.8
  Build date    : 20150223

 === Compiler Suite === 
  C compiler       : gnu4.8
  CFLAGS           :  -g -O2 -mtune=native -march=native
  C++ compiler     : gnu4.8
  CXXFLAGS         :  -g -O2 -mtune=native -march=native
  Fortran compiler : gnu4.8
  FCFLAGS          :  -g -ffree-line-length-none
  FC_LDFLAGS       : 

 === Optimizations === 
  Debug level        : basic
  Optimization level : standard
  Architecture       : unknown_unknown

 === MPI === 
  Parallel build : yes
  Parallel I/O   : auto
  Time tracing   : no
  GPU support    : no

 === Connectors / Fallbacks === 
  Connectors on : yes
  Fallbacks on  : yes
  DFT flavor    : none
  FFT flavor    : none
  LINALG flavor : netlib
  MATH flavor   : none
  TIMER flavor  : abinit
  TRIO flavor   : none

 === Experimental features === 
  Bindings            : no
  Exports             : no
  GW double-precision : no

 ++++++++++++++++++++++++++++++++++++++++++++++++++++++++++++++++++++++++++++++


 ++++++++++++++++++++++++++++++++++++++++++++++++++++++++++++++++++++++++++++++
 Default optimizations:
   -O2 -mtune=native -march=native


 ++++++++++++++++++++++++++++++++++++++++++++++++++++++++++++++++++++++++++++++


 ++++++++++++++++++++++++++++++++++++++++++++++++++++++++++++++++++++++++++++++
 CPP options activated during the build:

                    CC_GNU                   CXX_GNU                    FC_GNU

 HAVE_FC_ALLOCATABLE_DT...      HAVE_FC_COMMAND_LINE        HAVE_FC_CONTIGUOUS

           HAVE_FC_CPUTIME              HAVE_FC_EXIT             HAVE_FC_FLUSH

             HAVE_FC_GAMMA            HAVE_FC_GETENV          HAVE_FC_INT_QUAD

             HAVE_FC_IOMSG     HAVE_FC_ISO_C_BINDING        HAVE_FC_LONG_LINES

              HAVE_FC_NULL         HAVE_FC_STREAM_IO          HAVE_FORTRAN2003

               HAVE_LINALG        HAVE_LINALG_SERIAL                  HAVE_MPI

                 HAVE_MPI2               HAVE_MPI_IO HAVE_MPI_TYPE_CREATE_S...

             HAVE_OS_LINUX                HAVE_TIMER         HAVE_TIMER_ABINIT

            HAVE_TIMER_MPI         HAVE_TIMER_SERIAL
 ++++++++++++++++++++++++++++++++++++++++++++++++++++++++++++++++++++++++++++++

- input  file    -> input/LiF_nscf.in
- output file    -> output/LiF_nscf.out
- root for input  files -> io_files/LiF_scf_o
- root for output files -> io_files/LiF_nscf_o

-instrng :    37 lines of input have been read from file input/LiF_nscf.in


 iofn2 : Please give name of formatted atomic psp file
 iofn2 : for atom type   1 , psp file is 03-Li.psp

 iofn2 : Please give name of formatted atomic psp file
 iofn2 : for atom type   2 , psp file is 09-F.psp
  read the values zionpsp=  1.0 , pspcod=   1 , lmax=   1
  read the values zionpsp=  7.0 , pspcod=   1 , lmax=   1

 inpspheads : deduce mpsang  =   2, n1xccc  =2501.

 invars1m : enter jdtset=     0
 invars1 : treat image number     1

 symlatt : the Bravais lattice is cF (face-centered cubic)
  xred   is defined in input file
 ingeo : takes atomic coordinates from input array xred

 symlatt : the Bravais lattice is cF (face-centered cubic)

 symlatt : the Bravais lattice is cF (face-centered cubic)
 symspgr : the symmetry operation no.   1 is the identity
 symspgr : the symmetry operation no.   2 is an inversion
 symaxes : the symmetry operation no.   3 is a 2-axis
 symplanes : the symmetry operation no.   4 is a mirror plane
 symaxes : the symmetry operation no.   5 is a 2-axis
 symplanes : the symmetry operation no.   6 is a mirror plane
 symaxes : the symmetry operation no.   7 is a 2-axis
 symplanes : the symmetry operation no.   8 is a mirror plane
 symplanes : the symmetry operation no.   9 is a mirror plane
 symaxes : the symmetry operation no.  10 is a 2-axis
 symspgr : the symmetry operation no.  11 is a -4 axis
 symaxes : the symmetry operation no.  12 is a 4-axis
 symplanes : the symmetry operation no.  13 is a mirror plane
 symaxes : the symmetry operation no.  14 is a 2-axis
 symspgr : the symmetry operation no.  15 is a -4 axis
 symaxes : the symmetry operation no.  16 is a 4-axis
 symaxes : the symmetry operation no.  17 is a 3-axis
 symspgr : the symmetry operation no.  18 is a -3 axis
 symaxes : the symmetry operation no.  19 is a 3-axis
 symspgr : the symmetry operation no.  20 is a -3 axis
 symaxes : the symmetry operation no.  21 is a 3-axis
 symspgr : the symmetry operation no.  22 is a -3 axis
 symaxes : the symmetry operation no.  23 is a 3-axis
 symspgr : the symmetry operation no.  24 is a -3 axis
 symplanes : the symmetry operation no.  25 is a mirror plane
 symaxes : the symmetry operation no.  26 is a 2-axis
 symspgr : the symmetry operation no.  27 is a -4 axis
 symaxes : the symmetry operation no.  28 is a 4-axis
 symspgr : the symmetry operation no.  29 is a -4 axis
 symaxes : the symmetry operation no.  30 is a 4-axis
 symplanes : the symmetry operation no.  31 is a mirror plane
 symaxes : the symmetry operation no.  32 is a 2-axis
 symaxes : the symmetry operation no.  33 is a 3-axis
 symspgr : the symmetry operation no.  34 is a -3 axis
 symaxes : the symmetry operation no.  35 is a 3-axis
 symspgr : the symmetry operation no.  36 is a -3 axis
 symaxes : the symmetry operation no.  37 is a 3-axis
 symspgr : the symmetry operation no.  38 is a -3 axis
 symaxes : the symmetry operation no.  39 is a 3-axis
 symspgr : the symmetry operation no.  40 is a -3 axis
 symplanes : the symmetry operation no.  41 is a mirror plane
 symaxes : the symmetry operation no.  42 is a 2-axis
 symplanes : the symmetry operation no.  43 is a mirror plane
 symaxes : the symmetry operation no.  44 is a 2-axis
 symspgr : the symmetry operation no.  45 is a -4 axis
 symaxes : the symmetry operation no.  46 is a 4-axis
 symspgr : the symmetry operation no.  47 is a -4 axis
 symaxes : the symmetry operation no.  48 is a 4-axis
 symspgr : the symmetry operation no.  49 is a pure translation
 symspgr : the symmetry operation no.  50 is an inversion
 symaxes : the symmetry operation no.  51 is a 2_1-axis
 symplanes : the symmetry operation no.  52 is a primary n plane
 symaxes : the symmetry operation no.  53 is a 2_1-axis
 symplanes : the symmetry operation no.  54 is a primary n plane
 symaxes : the symmetry operation no.  55 is a 2-axis
 symplanes : the symmetry operation no.  56 is a primary n plane
 symplanes : the symmetry operation no.  57 is a tertiary m plane
 symaxes : the symmetry operation no.  58 is a 2_1-axis
 symspgr : the symmetry operation no.  59 is a -4 axis
 symaxes : the symmetry operation no.  60 is a 4_2-axis
 symplanes : the symmetry operation no.  61 is a tertiary m plane
 symaxes : the symmetry operation no.  62 is a 2_1-axis
 symspgr : the symmetry operation no.  63 is a -4 axis
 symaxes : the symmetry operation no.  64 is a 4_2-axis
 symaxes : the symmetry operation no.  65 is a 3, 3_1 or 3_2 axis
 symspgr : the symmetry operation no.  66 is a -3 axis
 symaxes : the symmetry operation no.  67 is a 3-axis
 symspgr : the symmetry operation no.  68 is a -3 axis
 symaxes : the symmetry operation no.  69 is a 3, 3_1 or 3_2 axis
 symspgr : the symmetry operation no.  70 is a -3 axis
 symaxes : the symmetry operation no.  71 is a 3-axis
 symspgr : the symmetry operation no.  72 is a -3 axis
 symplanes : the symmetry operation no.  73 is a tertiary m plane
 symaxes : the symmetry operation no.  74 is a 2-axis
 symspgr : the symmetry operation no.  75 is a -4 axis
 symaxes : the symmetry operation no.  76 is a 4-axis
 symspgr : the symmetry operation no.  77 is a -4 axis
 symaxes : the symmetry operation no.  78 is a 4-axis
 symplanes : the symmetry operation no.  79 is a mirror plane
 symaxes : the symmetry operation no.  80 is a 2-axis
 symaxes : the symmetry operation no.  81 is a 3, 3_1 or 3_2 axis
 symspgr : the symmetry operation no.  82 is a -3 axis
 symaxes : the symmetry operation no.  83 is a 3, 3_1 or 3_2 axis
 symspgr : the symmetry operation no.  84 is a -3 axis
 symaxes : the symmetry operation no.  85 is a 3-axis
 symspgr : the symmetry operation no.  86 is a -3 axis
 symaxes : the symmetry operation no.  87 is a 3-axis
 symspgr : the symmetry operation no.  88 is a -3 axis
 symplanes : the symmetry operation no.  89 is a tertiary m plane
 symaxes : the symmetry operation no.  90 is a 2_1-axis
 symplanes : the symmetry operation no.  91 is a tertiary m plane
 symaxes : the symmetry operation no.  92 is a 2_1-axis
 symspgr : the symmetry operation no.  93 is a -4 axis
 symaxes : the symmetry operation no.  94 is a 4_2-axis
 symspgr : the symmetry operation no.  95 is a -4 axis
 symaxes : the symmetry operation no.  96 is a 4_2-axis
 symspgr : the symmetry operation no.  97 is a pure translation
 symspgr : the symmetry operation no.  98 is an inversion
 symaxes : the symmetry operation no.  99 is a 2-axis
 symplanes : the symmetry operation no. 100 is a primary n plane
 symaxes : the symmetry operation no. 101 is a 2_1-axis
 symplanes : the symmetry operation no. 102 is a primary n plane
 symaxes : the symmetry operation no. 103 is a 2_1-axis
 symplanes : the symmetry operation no. 104 is a primary n plane
 symplanes : the symmetry operation no. 105 is a tertiary m plane
 symaxes : the symmetry operation no. 106 is a 2_1-axis
 symspgr : the symmetry operation no. 107 is a -4 axis
 symaxes : the symmetry operation no. 108 is a 4_2-axis
 symplanes : the symmetry operation no. 109 is a tertiary m plane
 symaxes : the symmetry operation no. 110 is a 2_1-axis
 symspgr : the symmetry operation no. 111 is a -4 axis
 symaxes : the symmetry operation no. 112 is a 4_2-axis
 symaxes : the symmetry operation no. 113 is a 3, 3_1 or 3_2 axis
 symspgr : the symmetry operation no. 114 is a -3 axis
 symaxes : the symmetry operation no. 115 is a 3-axis
 symspgr : the symmetry operation no. 116 is a -3 axis
 symaxes : the symmetry operation no. 117 is a 3-axis
 symspgr : the symmetry operation no. 118 is a -3 axis
 symaxes : the symmetry operation no. 119 is a 3, 3_1 or 3_2 axis
 symspgr : the symmetry operation no. 120 is a -3 axis
 symplanes : the symmetry operation no. 121 is a tertiary m plane
 symaxes : the symmetry operation no. 122 is a 2_1-axis
 symspgr : the symmetry operation no. 123 is a -4 axis
 symaxes : the symmetry operation no. 124 is a 4_2-axis
 symspgr : the symmetry operation no. 125 is a -4 axis
 symaxes : the symmetry operation no. 126 is a 4_2-axis
 symplanes : the symmetry operation no. 127 is a tertiary m plane
 symaxes : the symmetry operation no. 128 is a 2_1-axis
 symaxes : the symmetry operation no. 129 is a 3, 3_1 or 3_2 axis
 symspgr : the symmetry operation no. 130 is a -3 axis
 symaxes : the symmetry operation no. 131 is a 3-axis
 symspgr : the symmetry operation no. 132 is a -3 axis
 symaxes : the symmetry operation no. 133 is a 3, 3_1 or 3_2 axis
 symspgr : the symmetry operation no. 134 is a -3 axis
 symaxes : the symmetry operation no. 135 is a 3-axis
 symspgr : the symmetry operation no. 136 is a -3 axis
 symplanes : the symmetry operation no. 137 is a tertiary m plane
 symaxes : the symmetry operation no. 138 is a 2-axis
 symplanes : the symmetry operation no. 139 is a mirror plane
 symaxes : the symmetry operation no. 140 is a 2-axis
 symspgr : the symmetry operation no. 141 is a -4 axis
 symaxes : the symmetry operation no. 142 is a 4-axis
 symspgr : the symmetry operation no. 143 is a -4 axis
 symaxes : the symmetry operation no. 144 is a 4-axis
 symspgr : the symmetry operation no. 145 is a pure translation
 symspgr : the symmetry operation no. 146 is an inversion
 symaxes : the symmetry operation no. 147 is a 2_1-axis
 symplanes : the symmetry operation no. 148 is a primary n plane
 symaxes : the symmetry operation no. 149 is a 2-axis
 symplanes : the symmetry operation no. 150 is a primary n plane
 symaxes : the symmetry operation no. 151 is a 2_1-axis
 symplanes : the symmetry operation no. 152 is a primary n plane
 symplanes : the symmetry operation no. 153 is a tertiary m plane
 symaxes : the symmetry operation no. 154 is a 2-axis
 symspgr : the symmetry operation no. 155 is a -4 axis
 symaxes : the symmetry operation no. 156 is a 4-axis
 symplanes : the symmetry operation no. 157 is a mirror plane
 symaxes : the symmetry operation no. 158 is a 2-axis
 symspgr : the symmetry operation no. 159 is a -4 axis
 symaxes : the symmetry operation no. 160 is a 4-axis
 symaxes : the symmetry operation no. 161 is a 3, 3_1 or 3_2 axis
 symspgr : the symmetry operation no. 162 is a -3 axis
 symaxes : the symmetry operation no. 163 is a 3, 3_1 or 3_2 axis
 symspgr : the symmetry operation no. 164 is a -3 axis
 symaxes : the symmetry operation no. 165 is a 3-axis
 symspgr : the symmetry operation no. 166 is a -3 axis
 symaxes : the symmetry operation no. 167 is a 3-axis
 symspgr : the symmetry operation no. 168 is a -3 axis
 symplanes : the symmetry operation no. 169 is a tertiary m plane
 symaxes : the symmetry operation no. 170 is a 2_1-axis
 symspgr : the symmetry operation no. 171 is a -4 axis
 symaxes : the symmetry operation no. 172 is a 4_2-axis
 symspgr : the symmetry operation no. 173 is a -4 axis
 symaxes : the symmetry operation no. 174 is a 4_2-axis
 symplanes : the symmetry operation no. 175 is a tertiary m plane
 symaxes : the symmetry operation no. 176 is a 2_1-axis
 symaxes : the symmetry operation no. 177 is a 3, 3_1 or 3_2 axis
 symspgr : the symmetry operation no. 178 is a -3 axis
 symaxes : the symmetry operation no. 179 is a 3-axis
 symspgr : the symmetry operation no. 180 is a -3 axis
 symaxes : the symmetry operation no. 181 is a 3-axis
 symspgr : the symmetry operation no. 182 is a -3 axis
 symaxes : the symmetry operation no. 183 is a 3, 3_1 or 3_2 axis
 symspgr : the symmetry operation no. 184 is a -3 axis
 symplanes : the symmetry operation no. 185 is a tertiary m plane
 symaxes : the symmetry operation no. 186 is a 2_1-axis
 symplanes : the symmetry operation no. 187 is a tertiary m plane
 symaxes : the symmetry operation no. 188 is a 2_1-axis
 symspgr : the symmetry operation no. 189 is a -4 axis
 symaxes : the symmetry operation no. 190 is a 4_2-axis
 symspgr : the symmetry operation no. 191 is a -4 axis
 symaxes : the symmetry operation no. 192 is a 4_2-axis
 symspgr : spgroup= 225  Fm -3 m   (=Oh^5)
 getkgrid : length of smallest supercell vector (bohr)=    2.178872E+01
       Simple Lattice Grid
 symkpt : found identity, with number  1
 getkgrid : length of smallest supercell vector (bohr)=    2.178872E+01
       Simple Lattice Grid
 symkpt : found identity, with number  1
  dtset%nelect=   8.0000000000000000     
 chkneu : initialized the occupation numbers for occopt=    1
    spin-unpolarized case :
  2.00  2.00  2.00  2.00  0.00  0.00  0.00  0.00  0.00  0.00  0.00  0.00
  0.00  0.00  0.00  0.00  0.00  0.00  0.00  0.00  0.00  0.00  0.00  0.00
  0.00  0.00  0.00  0.00  0.00  0.00  0.00  0.00  0.00  0.00  0.00  0.00
  0.00  0.00  0.00  0.00  0.00  0.00  0.00  0.00  0.00  0.00  0.00  0.00
  0.00  0.00
  mpi_setup : enter 

 mpi_setup : WARNING -
 For non ground state calculation, set bandpp, npfft, npband, npspinor and npkpt to 1
 mpi_setup1: mkmem  undefined in the input file. Use default mkmem  = nkpt
 mpi_setup1: With nkpt_me=   10 and mkmem  =    10, ground state wf handled in core.
 mpi_setup1: mkqmem undefined in the input file. Use default mkqmem = nkpt
 mpi_setup1: With nkpt_me=   10 and mkqmem =    10, ground state wf handled in core.
 mpi_setup1: mk1mem undefined in the input file. Use default mk1mem = nkpt
 mpi_setup1: With nkpt_me=   10 and mk1mem =    10, ground state wf handled in core.

 getng.F90:200:WARNING
   The second and third dimension of the FFT grid,    0    0  were imposed to be multiple of the number of processors for the FFT,    1
 For input ecut=  4.000000E+01 best grid ngfft=      32      32      32
       max ecut=  4.257614E+01

 ==== FFT mesh ====
  FFT mesh divisions ........................    32   32   32
  Augmented FFT divisions ...................    33   33   32
  FFT algorithm .............................   112
  FFT cache size ............................    16
 getmpw: optimal value of mpw=    1392

 Symmetries : space group Fm -3 m (#225); Bravais cF (face-center cubic)

 getdim_nloc : deduce lmnmax  =   1, lnmax  =   1,
                      lmnmaxso=   1, lnmaxso=   1.
 setmqgrid : COMMENT -
  The number of points "mqgrid" in reciprocal space used for the
  description of the pseudopotentials has been set automatically
  by abinit to :     3001.
 memory : analysis of memory needs
================================================================================
 Values of the parameters that define the memory need of the present run
   intxc =         0  ionmov =         0    iscf =        -2 xclevel =         1
  lmnmax =         1   lnmax =         1   mband =        50  mffmem =         1
P  mgfft =        32   mkmem =        10 mpssoang=         2     mpw =      1392
  mqgrid =      3001   natom =         2    nfft =     32768    nkpt =        10
  nloalg =         4  nspden =         1 nspinor =         1  nsppol =         1
    nsym =        48  n1xccc =      2501  ntypat =         2  occopt =         1
================================================================================
P This job should need less than                      17.117 Mbytes of memory.
  Rough estimation (10% accuracy) of disk space for files :
_ WF disk file :     10.622 Mbytes ; DEN or POT disk file :      0.252 Mbytes.
================================================================================

 Biggest array : cg(disk), with     10.6221 MBytes.
 memana : allocated an array of     10.622 Mbytes, for testing purposes.
 memana : allocated      17.117 Mbytes, for testing purposes.
 The job will continue.
--------------------------------------------------------------------------------
------------- Echo of variables that govern the present computation ------------
--------------------------------------------------------------------------------
-
- outvars: echo of selected default values                                      
-   accesswff0 =  0 , fftalg0 =112 , wfoptalg0 =  0
-
- outvars: echo of global parameters not present in the input file              
-  max_nthreads =    0
-
 -outvars: echo values of preprocessed input variables --------
            acell      7.7034756000E+00  7.7034756000E+00  7.7034756000E+00 Bohr
              amu      6.94100000E+00  1.89984032E+01
      chksymbreak           0
             ecut      4.00000000E+01 Hartree
           irdden           1
             iscf          -2
              kpt      1.25000000E-01  1.25000000E-01  1.25000000E-01
                       3.75000000E-01  1.25000000E-01  1.25000000E-01
                      -3.75000000E-01  1.25000000E-01  1.25000000E-01
                      -1.25000000E-01  1.25000000E-01  1.25000000E-01
                       3.75000000E-01  3.75000000E-01  1.25000000E-01
                      -3.75000000E-01  3.75000000E-01  1.25000000E-01
                      -1.25000000E-01  3.75000000E-01  1.25000000E-01
                      -3.75000000E-01 -3.75000000E-01  1.25000000E-01
                       3.75000000E-01  3.75000000E-01  3.75000000E-01
                      -3.75000000E-01  3.75000000E-01  3.75000000E-01
         kptrlatt        4    0    0      0    4    0      0    0    4
          kptrlen      2.17887193E+01
          kssform           3
P           mkmem          10
            natom           2
            nband          50
         nbandkss          50
           nbdbuf           2
            ngfft          32      32      32
             nkpt          10
            nstep        3000
             nsym          48
           ntypat           2
            rprim      0.0000000000E+00  5.0000000000E-01  5.0000000000E-01
                       5.0000000000E-01  0.0000000000E+00  5.0000000000E-01
                       5.0000000000E-01  5.0000000000E-01  0.0000000000E+00
           shiftk      5.00000000E-01  5.00000000E-01  5.00000000E-01
          spgroup         225
        symmorphi           0
           symrel      1  0  0   0  1  0   0  0  1      -1  0  0   0 -1  0   0  0 -1
                       0 -1  1   0 -1  0   1 -1  0       0  1 -1   0  1  0  -1  1  0
                      -1  0  0  -1  0  1  -1  1  0       1  0  0   1  0 -1   1 -1  0
                       0  1 -1   1  0 -1   0  0 -1       0 -1  1  -1  0  1   0  0  1
                      -1  0  0  -1  1  0  -1  0  1       1  0  0   1 -1  0   1  0 -1
                       0 -1  1   1 -1  0   0 -1  0       0  1 -1  -1  1  0   0  1  0
                       1  0  0   0  0  1   0  1  0      -1  0  0   0  0 -1   0 -1  0
                       0  1 -1   0  0 -1   1  0 -1       0 -1  1   0  0  1  -1  0  1
                      -1  0  1  -1  1  0  -1  0  0       1  0 -1   1 -1  0   1  0  0
                       0 -1  0   1 -1  0   0 -1  1       0  1  0  -1  1  0   0  1 -1
                       1  0 -1   0  0 -1   0  1 -1      -1  0  1   0  0  1   0 -1  1
                       0  1  0   0  0  1   1  0  0       0 -1  0   0  0 -1  -1  0  0
                       1  0 -1   0  1 -1   0  0 -1      -1  0  1   0 -1  1   0  0  1
                       0 -1  0   0 -1  1   1 -1  0       0  1  0   0  1 -1  -1  1  0
                      -1  0  1  -1  0  0  -1  1  0       1  0 -1   1  0  0   1 -1  0
                       0  1  0   1  0  0   0  0  1       0 -1  0  -1  0  0   0  0 -1
                       0  0 -1   0  1 -1   1  0 -1       0  0  1   0 -1  1  -1  0  1
                       1 -1  0   0 -1  1   0 -1  0      -1  1  0   0  1 -1   0  1  0
                       0  0  1   1  0  0   0  1  0       0  0 -1  -1  0  0   0 -1  0
                      -1  1  0  -1  0  0  -1  0  1       1 -1  0   1  0  0   1  0 -1
                       0  0  1   0  1  0   1  0  0       0  0 -1   0 -1  0  -1  0  0
                       1 -1  0   0 -1  0   0 -1  1      -1  1  0   0  1  0   0  1 -1
                       0  0 -1   1  0 -1   0  1 -1       0  0  1  -1  0  1   0 -1  1
                      -1  1  0  -1  0  1  -1  0  0       1 -1  0   1  0 -1   1  0  0
           tolwfr      1.00000000E-16
            typat      1  2
              wtk        0.03125    0.09375    0.09375    0.09375    0.09375    0.18750
                         0.18750    0.09375    0.03125    0.09375
           xangst      0.0000000000E+00  0.0000000000E+00  0.0000000000E+00
                      -2.0382518572E+00  0.0000000000E+00  0.0000000000E+00
            xcart      0.0000000000E+00  0.0000000000E+00  0.0000000000E+00
                      -3.8517378000E+00  0.0000000000E+00  0.0000000000E+00
             xred      0.0000000000E+00  0.0000000000E+00  0.0000000000E+00
                       5.0000000000E-01 -5.0000000000E-01 -5.0000000000E-01
            znucl        3.00000    9.00000

================================================================================

 chkinp: machine precision is   2.2204460492503131E-16

 chkinp: Checking input parameters for consistency.
 Checking if input is consistent with KSS generation
 DATA TYPE INFORMATION: 
 REAL:      Data type name: REAL(DP) 
            Kind value:      8
            Precision:      15
            Smallest nonnegligible quantity relative to 1:  0.22204460E-15
            Smallest positive number:                       0.22250739-307
            Largest representable number:                   0.17976931+309
 INTEGER:   Data type name: INTEGER(default) 
            Kind value: 4
            Bit size:   32
            Largest representable number: 2147483647
 LOGICAL:   Data type name: LOGICAL 
            Kind value: 4
 CHARACTER: Data type name: CHARACTER             Kind value: 1
 ==== OpenMP parallelism is OFF ====
 
  ==== Using MPI-2 specifications ==== 
  MPI-IO support is ON
  xmpi_tag_ub ................   2147483647
  xmpi_bsize_ch ..............            1
  xmpi_bsize_int .............            4
  xmpi_bsize_sp ..............            4
  xmpi_bsize_dp ..............            8
  xmpi_bsize_spc .............            8
  xmpi_bsize_dpc .............           16
  xmpio_bsize_frm ............            4
  xmpi_address_kind ..........            8
  xmpi_offset_kind ...........            8
  MPI_WTICK ..................    9.9999999999999995E-007

================================================================================
== DATASET  1 ==================================================================
-   nproc =    1

 setmqgrid : COMMENT -
  The number of points "mqgrid" in reciprocal space used for the
  description of the pseudopotentials has been set automatically
  by abinit to :     3001.

 getdim_nloc : deduce lmnmax  =   1, lnmax  =   1,
                      lmnmaxso=   1, lnmaxso=   1.
 Exchange-correlation functional for the present dataset will be:
  LDA: new Teter (4/93) with spin-polarized option - ixc=1
 Citation for XC functional:
  S. Goedecker, M. Teter, J. Huetter, PRB 54, 1703 (1996)

 Unit cell volume ucvol=  1.1428787E+02 bohr^3
 Angles (23,13,12)=  6.00000000E+01  6.00000000E+01  6.00000000E+01 degrees

 getcut: wavevector=  0.0000  0.0000  0.0000  ngfft=  32  32  32
         ecut(hartree)=     40.000   => boxcut(ratio)=   2.06340
- pspini: atom type   1  psp file is 03-Li.psp
- pspatm: opening atomic psp file    03-Li.psp
-  Troullier-Martins psp for element  Li        Thu Oct 27 17:29:06 EDT 1994
-  3.00000   1.00000    940714                znucl, zion, pspdat
    1    1    1    1      2001   0.00000      pspcod,pspxc,lmax,lloc,mmax,r2well
    0   2.534   6.726    1   2.4315963        l,e99.0,e99.9,nproj,rcpsp
   0.00000000   0.00000000   0.00000000   0.00000000     rms, ekb1, ekb2, epsatm
    1   3.283   5.836    0   2.4315963        l,e99.0,e99.9,nproj,rcpsp
   0.00000000   0.00000000   0.00000000   0.00000000     rms, ekb1, ekb2, epsatm
    2.44451305764117    0.01373030920382    0.17502673260160   rchrg,fchrg,qchrg
 pspatm: epsatm=   -1.77437869
         --- l  ekb(1:nproj) -->
             0    1.242797
 pspatm: atomic psp has been read  and splines computed

- pspini: atom type   2  psp file is 09-F.psp
- pspatm: opening atomic psp file    09-F.psp
-  Troullier-Martins psp for element  F         Thu Oct 27 17:30:08 EDT 1994
-  9.00000   7.00000    940714                znucl, zion, pspdat
    1    1    1    1      2001   0.00000      pspcod,pspxc,lmax,lloc,mmax,r2well
    0   6.771  17.439    1   1.3876018        l,e99.0,e99.9,nproj,rcpsp
   0.00000000   0.00000000   0.00000000   0.00000000     rms, ekb1, ekb2, epsatm
    1  24.372  32.350    0   1.3876018        l,e99.0,e99.9,nproj,rcpsp
   0.00000000   0.00000000   0.00000000   0.00000000     rms, ekb1, ekb2, epsatm
    0.49406148701180    6.36128955091623    0.66947621353748   rchrg,fchrg,qchrg
 pspatm: epsatm=    1.80528525
         --- l  ekb(1:nproj) -->
             0    6.310228
 pspatm: atomic psp has been read  and splines computed

   2.47252491E-01                                ecore*ucvol(ha*bohr**3)
   1  1  1  1  1  1  1  1  1  1  1  1  1  1  1  1  1  1  1  1  1  1  1  1
   1  1  1  1  1  1  1  1  1  1  1  1  1  1  1  1  1  1  1  1  1  1  1  1
   2  2  2  2  2  2  2  2  2  2  2  2  2  2  2  2  2  2  2  2  2  2  2  2
   2  2  2  2  2  2  2  2  2  2  2  2  2  2  2  2  2  2  2  2  2  2  2  2
 wfconv:    50 bands initialized randomly with npw=  1387, for ikpt=     1
 wfconv:    50 bands initialized randomly with npw=  1376, for ikpt=     2
 wfconv:    50 bands initialized randomly with npw=  1389, for ikpt=     3
 wfconv:    50 bands initialized randomly with npw=  1380, for ikpt=     4
 wfconv:    50 bands initialized randomly with npw=  1385, for ikpt=     5
 wfconv:    50 bands initialized randomly with npw=  1386, for ikpt=     6
 wfconv:    50 bands initialized randomly with npw=  1380, for ikpt=     7
 wfconv:    50 bands initialized randomly with npw=  1370, for ikpt=     8
 wfconv:    50 bands initialized randomly with npw=  1392, for ikpt=     9
 wfconv:    50 bands initialized randomly with npw=  1377, for ikpt=    10

 ioarr: reading density data
ioarr: file name is io_files/LiF_scf_o_DEN

================================================================================

          - hdr_check: checking restart file header for consistency -


        current calculation                         restart file
        -------------------                         ------------

  calculation expects a density         |  input file contains a density
. ABINIT  code version 7.4.1            |  ABINIT  code version 7.4.1
. date 20150727 bantot  500 natom    2  |  date 20150727 bantot  100 natom    2
  nkpt  10 nsym 48 ngfft  32,  32,  32  |  nkpt  10 nsym 48 ngfft  32,  32,  32
  ntypat  2 ecut_eff  40.0000000        |  ntypat  2 ecut_eff  40.0000000
  usepaw  0                             |  usepaw  0
  usewvl  0                             |  usewvl  0
  rprimd:                               |  rprimd:
     0.0000000   3.8517378   3.8517378  |     0.0000000   3.8517378   3.8517378
     3.8517378   0.0000000   3.8517378  |     3.8517378   0.0000000   3.8517378
     3.8517378   3.8517378   0.0000000  |     3.8517378   3.8517378   0.0000000
  nband:                                |  nband:
    50  50  50  50  50  50  50  50  50  |    10  10  10  10  10  10  10  10  10
    50                                  |    10
  symafm:                               |  symafm:
    1  1  1  1  1  1  1  1  1  1  1  1  |    1  1  1  1  1  1  1  1  1  1  1  1
    1  1  1  1  1  1  1  1  1  1  1  1  |    1  1  1  1  1  1  1  1  1  1  1  1
    1  1  1  1  1  1  1  1  1  1  1  1  |    1  1  1  1  1  1  1  1  1  1  1  1
    1  1  1  1  1  1  1  1  1  1  1  1  |    1  1  1  1  1  1  1  1  1  1  1  1
  symrel:                               |  symrel:
    1  0  0  0  1  0  0  0  1           |    1  0  0  0  1  0  0  0  1
   -1  0  0  0 -1  0  0  0 -1           |   -1  0  0  0 -1  0  0  0 -1
    0 -1  1  0 -1  0  1 -1  0           |    0 -1  1  0 -1  0  1 -1  0
    0  1 -1  0  1  0 -1  1  0           |    0  1 -1  0  1  0 -1  1  0
   -1  0  0 -1  0  1 -1  1  0           |   -1  0  0 -1  0  1 -1  1  0
    1  0  0  1  0 -1  1 -1  0           |    1  0  0  1  0 -1  1 -1  0
    0  1 -1  1  0 -1  0  0 -1           |    0  1 -1  1  0 -1  0  0 -1
    0 -1  1 -1  0  1  0  0  1           |    0 -1  1 -1  0  1  0  0  1
   -1  0  0 -1  1  0 -1  0  1           |   -1  0  0 -1  1  0 -1  0  1
    1  0  0  1 -1  0  1  0 -1           |    1  0  0  1 -1  0  1  0 -1
    0 -1  1  1 -1  0  0 -1  0           |    0 -1  1  1 -1  0  0 -1  0
    0  1 -1 -1  1  0  0  1  0           |    0  1 -1 -1  1  0  0  1  0
    1  0  0  0  0  1  0  1  0           |    1  0  0  0  0  1  0  1  0
   -1  0  0  0  0 -1  0 -1  0           |   -1  0  0  0  0 -1  0 -1  0
    0  1 -1  0  0 -1  1  0 -1           |    0  1 -1  0  0 -1  1  0 -1
    0 -1  1  0  0  1 -1  0  1           |    0 -1  1  0  0  1 -1  0  1
   -1  0  1 -1  1  0 -1  0  0           |   -1  0  1 -1  1  0 -1  0  0
    1  0 -1  1 -1  0  1  0  0           |    1  0 -1  1 -1  0  1  0  0
    0 -1  0  1 -1  0  0 -1  1           |    0 -1  0  1 -1  0  0 -1  1
    0  1  0 -1  1  0  0  1 -1           |    0  1  0 -1  1  0  0  1 -1
    1  0 -1  0  0 -1  0  1 -1           |    1  0 -1  0  0 -1  0  1 -1
   -1  0  1  0  0  1  0 -1  1           |   -1  0  1  0  0  1  0 -1  1
    0  1  0  0  0  1  1  0  0           |    0  1  0  0  0  1  1  0  0
    0 -1  0  0  0 -1 -1  0  0           |    0 -1  0  0  0 -1 -1  0  0
    1  0 -1  0  1 -1  0  0 -1           |    1  0 -1  0  1 -1  0  0 -1
   -1  0  1  0 -1  1  0  0  1           |   -1  0  1  0 -1  1  0  0  1
    0 -1  0  0 -1  1  1 -1  0           |    0 -1  0  0 -1  1  1 -1  0
    0  1  0  0  1 -1 -1  1  0           |    0  1  0  0  1 -1 -1  1  0
   -1  0  1 -1  0  0 -1  1  0           |   -1  0  1 -1  0  0 -1  1  0
    1  0 -1  1  0  0  1 -1  0           |    1  0 -1  1  0  0  1 -1  0
    0  1  0  1  0  0  0  0  1           |    0  1  0  1  0  0  0  0  1
    0 -1  0 -1  0  0  0  0 -1           |    0 -1  0 -1  0  0  0  0 -1
    0  0 -1  0  1 -1  1  0 -1           |    0  0 -1  0  1 -1  1  0 -1
    0  0  1  0 -1  1 -1  0  1           |    0  0  1  0 -1  1 -1  0  1
    1 -1  0  0 -1  1  0 -1  0           |    1 -1  0  0 -1  1  0 -1  0
   -1  1  0  0  1 -1  0  1  0           |   -1  1  0  0  1 -1  0  1  0
    0  0  1  1  0  0  0  1  0           |    0  0  1  1  0  0  0  1  0
    0  0 -1 -1  0  0  0 -1  0           |    0  0 -1 -1  0  0  0 -1  0
   -1  1  0 -1  0  0 -1  0  1           |   -1  1  0 -1  0  0 -1  0  1
    1 -1  0  1  0  0  1  0 -1           |    1 -1  0  1  0  0  1  0 -1
    0  0  1  0  1  0  1  0  0           |    0  0  1  0  1  0  1  0  0
    0  0 -1  0 -1  0 -1  0  0           |    0  0 -1  0 -1  0 -1  0  0
    1 -1  0  0 -1  0  0 -1  1           |    1 -1  0  0 -1  0  0 -1  1
   -1  1  0  0  1  0  0  1 -1           |   -1  1  0  0  1  0  0  1 -1
    0  0 -1  1  0 -1  0  1 -1           |    0  0 -1  1  0 -1  0  1 -1
    0  0  1 -1  0  1  0 -1  1           |    0  0  1 -1  0  1  0 -1  1
   -1  1  0 -1  0  1 -1  0  0           |   -1  1  0 -1  0  1 -1  0  0
    1 -1  0  1  0 -1  1  0  0           |    1 -1  0  1  0 -1  1  0  0
  typat:                                |  typat:
    1  2                                |    1  2
  so_psp  :                             |  so_psp  :
    1  1                                |    1  1
  istwfk:                               |  istwfk:
    1  1  1  1  1  1  1  1  1  1        |    1  1  1  1  1  1  1  1  1  1
  kpt:                                  |  kpt:
     0.1250000   0.1250000   0.1250000  |     0.1250000   0.1250000   0.1250000
     0.3750000   0.1250000   0.1250000  |     0.3750000   0.1250000   0.1250000
    -0.3750000   0.1250000   0.1250000  |    -0.3750000   0.1250000   0.1250000
    -0.1250000   0.1250000   0.1250000  |    -0.1250000   0.1250000   0.1250000
     0.3750000   0.3750000   0.1250000  |     0.3750000   0.3750000   0.1250000
  wtk:                                  |  wtk:
    0.031  0.094  0.094  0.094  0.094   |    0.031  0.094  0.094  0.094  0.094
  tnons:                                |  tnons:
     0.0000000   0.0000000   0.0000000  |     0.0000000   0.0000000   0.0000000
     0.0000000   0.0000000   0.0000000  |     0.0000000   0.0000000   0.0000000
     0.0000000   0.0000000   0.0000000  |     0.0000000   0.0000000   0.0000000
     0.0000000   0.0000000   0.0000000  |     0.0000000   0.0000000   0.0000000
     0.0000000   0.0000000   0.0000000  |     0.0000000   0.0000000   0.0000000
     0.0000000   0.0000000   0.0000000  |     0.0000000   0.0000000   0.0000000
     0.0000000   0.0000000   0.0000000  |     0.0000000   0.0000000   0.0000000
     0.0000000   0.0000000   0.0000000  |     0.0000000   0.0000000   0.0000000
     0.0000000   0.0000000   0.0000000  |     0.0000000   0.0000000   0.0000000
     0.0000000   0.0000000   0.0000000  |     0.0000000   0.0000000   0.0000000
     0.0000000   0.0000000   0.0000000  |     0.0000000   0.0000000   0.0000000
     0.0000000   0.0000000   0.0000000  |     0.0000000   0.0000000   0.0000000
     0.0000000   0.0000000   0.0000000  |     0.0000000   0.0000000   0.0000000
     0.0000000   0.0000000   0.0000000  |     0.0000000   0.0000000   0.0000000
     0.0000000   0.0000000   0.0000000  |     0.0000000   0.0000000   0.0000000
     0.0000000   0.0000000   0.0000000  |     0.0000000   0.0000000   0.0000000
     0.0000000   0.0000000   0.0000000  |     0.0000000   0.0000000   0.0000000
     0.0000000   0.0000000   0.0000000  |     0.0000000   0.0000000   0.0000000
     0.0000000   0.0000000   0.0000000  |     0.0000000   0.0000000   0.0000000
     0.0000000   0.0000000   0.0000000  |     0.0000000   0.0000000   0.0000000
     0.0000000   0.0000000   0.0000000  |     0.0000000   0.0000000   0.0000000
     0.0000000   0.0000000   0.0000000  |     0.0000000   0.0000000   0.0000000
     0.0000000   0.0000000   0.0000000  |     0.0000000   0.0000000   0.0000000
     0.0000000   0.0000000   0.0000000  |     0.0000000   0.0000000   0.0000000
     0.0000000   0.0000000   0.0000000  |     0.0000000   0.0000000   0.0000000
     0.0000000   0.0000000   0.0000000  |     0.0000000   0.0000000   0.0000000
     0.0000000   0.0000000   0.0000000  |     0.0000000   0.0000000   0.0000000
     0.0000000   0.0000000   0.0000000  |     0.0000000   0.0000000   0.0000000
     0.0000000   0.0000000   0.0000000  |     0.0000000   0.0000000   0.0000000
     0.0000000   0.0000000   0.0000000  |     0.0000000   0.0000000   0.0000000
     0.0000000   0.0000000   0.0000000  |     0.0000000   0.0000000   0.0000000
     0.0000000   0.0000000   0.0000000  |     0.0000000   0.0000000   0.0000000
     0.0000000   0.0000000   0.0000000  |     0.0000000   0.0000000   0.0000000
     0.0000000   0.0000000   0.0000000  |     0.0000000   0.0000000   0.0000000
     0.0000000   0.0000000   0.0000000  |     0.0000000   0.0000000   0.0000000
     0.0000000   0.0000000   0.0000000  |     0.0000000   0.0000000   0.0000000
     0.0000000   0.0000000   0.0000000  |     0.0000000   0.0000000   0.0000000
     0.0000000   0.0000000   0.0000000  |     0.0000000   0.0000000   0.0000000
     0.0000000   0.0000000   0.0000000  |     0.0000000   0.0000000   0.0000000
     0.0000000   0.0000000   0.0000000  |     0.0000000   0.0000000   0.0000000
     0.0000000   0.0000000   0.0000000  |     0.0000000   0.0000000   0.0000000
     0.0000000   0.0000000   0.0000000  |     0.0000000   0.0000000   0.0000000
     0.0000000   0.0000000   0.0000000  |     0.0000000   0.0000000   0.0000000
     0.0000000   0.0000000   0.0000000  |     0.0000000   0.0000000   0.0000000
     0.0000000   0.0000000   0.0000000  |     0.0000000   0.0000000   0.0000000
     0.0000000   0.0000000   0.0000000  |     0.0000000   0.0000000   0.0000000
     0.0000000   0.0000000   0.0000000  |     0.0000000   0.0000000   0.0000000
     0.0000000   0.0000000   0.0000000  |     0.0000000   0.0000000   0.0000000
   znucl:                               |   znucl:
    3.00  9.00                          |    3.00  9.00
  pseudopotential atom type  1:         |  pseudopotential atom type  1:
  pspso   0 pspxc   1                   |  pspso   0 pspxc   1
  pspdat 940714 pspcod    1 zion   1.0  |  pspdat 940714 pspcod    1 zion   1.0
  pseudopotential atom type  2:         |  pseudopotential atom type  2:
  pspso   0 pspxc   1                   |  pspso   0 pspxc   1
  pspdat 940714 pspcod    1 zion   7.0  |  pspdat 940714 pspcod    1 zion   7.0
  xred:                                 |  xred:
     0.0000000   0.0000000   0.0000000  |     0.0000000   0.0000000   0.0000000
     0.5000000  -0.5000000  -0.5000000  |     0.5000000  -0.5000000  -0.5000000
 hdr_check:  Density/Potential file is OK for restart of calculation
================================================================================
ioarr: data read from disk file io_files/LiF_scf_o_DEN

================================================================================

 getcut: wavevector=  0.0000  0.0000  0.0000  ngfft=  32  32  32
         ecut(hartree)=     40.000   => boxcut(ratio)=   2.06340

 ewald : nr and ng are    4 and   11
 vtorho : nnsclo_now=***, note that nnsclo,dbl_nnsclo,istep=  0 0  1
   1  1  1  1  1  1  1  1  1  1  1  1  1  1  1  1  1  1  1  1  1  1  1  1
   1  1  1  1  1  1  1  1  1  1  1  1  1  1  1  1  1  1  1  1  1  1  1  1
   2  2  2  2  2  2  2  2  2  2  2  2  2  2  2  2  2  2  2  2  2  2  2  2
   2  2  2  2  2  2  2  2  2  2  2  2  2  2  2  2  2  2  2  2  2  2  2  2
 ioarr: writing density data
ioarr: file name is io_files/LiF_nscf_o_DEN
ioarr: data written to disk file io_files/LiF_nscf_o_DEN

======================================================================
 Calculating and writing out Kohn-Sham electronic Structure file
 Using conjugate gradient wavefunctions and energies (kssform=3)

 Sorting g-vecs for an output of states on an unique "big" PW basis.

 remove_inversion: WARNING - 
 Removing inversion related symmetrie from initial set
 The inversion is symmetry operation no.   2
 Symmetry operations no.   1 and no.   2 are related through the inversion.
 Symmetry operation no.   2 will be suppressed.
 Symmetry operations no.   3 and no.   4 are related through the inversion.
 Symmetry operation no.   4 will be suppressed.
 Symmetry operations no.   5 and no.   6 are related through the inversion.
 Symmetry operation no.   6 will be suppressed.
 Symmetry operations no.   7 and no.   8 are related through the inversion.
 Symmetry operation no.   8 will be suppressed.
 Symmetry operations no.   9 and no.  10 are related through the inversion.
 Symmetry operation no.   9 will be suppressed.
 Symmetry operations no.  11 and no.  12 are related through the inversion.
 Symmetry operation no.  11 will be suppressed.
 Symmetry operations no.  13 and no.  14 are related through the inversion.
 Symmetry operation no.  13 will be suppressed.
 Symmetry operations no.  15 and no.  16 are related through the inversion.
 Symmetry operation no.  15 will be suppressed.
 Symmetry operations no.  17 and no.  18 are related through the inversion.
 Symmetry operation no.  18 will be suppressed.
 Symmetry operations no.  19 and no.  20 are related through the inversion.
 Symmetry operation no.  20 will be suppressed.
 Symmetry operations no.  21 and no.  22 are related through the inversion.
 Symmetry operation no.  22 will be suppressed.
 Symmetry operations no.  23 and no.  24 are related through the inversion.
 Symmetry operation no.  24 will be suppressed.
 Symmetry operations no.  25 and no.  26 are related through the inversion.
 Symmetry operation no.  25 will be suppressed.
 Symmetry operations no.  27 and no.  28 are related through the inversion.
 Symmetry operation no.  27 will be suppressed.
 Symmetry operations no.  29 and no.  30 are related through the inversion.
 Symmetry operation no.  29 will be suppressed.
 Symmetry operations no.  31 and no.  32 are related through the inversion.
 Symmetry operation no.  31 will be suppressed.
 Symmetry operations no.  33 and no.  34 are related through the inversion.
 Symmetry operation no.  34 will be suppressed.
 Symmetry operations no.  35 and no.  36 are related through the inversion.
 Symmetry operation no.  36 will be suppressed.
 Symmetry operations no.  37 and no.  38 are related through the inversion.
 Symmetry operation no.  38 will be suppressed.
 Symmetry operations no.  39 and no.  40 are related through the inversion.
 Symmetry operation no.  40 will be suppressed.
 Symmetry operations no.  41 and no.  42 are related through the inversion.
 Symmetry operation no.  41 will be suppressed.
 Symmetry operations no.  43 and no.  44 are related through the inversion.
 Symmetry operation no.  43 will be suppressed.
 Symmetry operations no.  45 and no.  46 are related through the inversion.
 Symmetry operation no.  45 will be suppressed.
 Symmetry operations no.  47 and no.  48 are related through the inversion.
 Symmetry operation no.  47 will be suppressed.
 Inversion related operations have been suppressed from symmetries list.
 Since the number of g's to be written on file
 was 0 or too large, it has been set to the max. value.,
 computed from the union of the sets of G vectors for the different k-points.
 Number of g-vectors written on file is:  1885
 Number of bands written on file is:    50

 Total amount of disk space required by _KSS file =    15.56 Mb.
  Subdivided into : 
  Header             =     0.02 Mb.
  KB elements        =     1.15 Mb.
  Wavefunctions (PW) =    14.39 Mb.
  PAW projectors     =     0.00 Mb.


 Opening file for KS structure output: io_files/LiF_nscf_o_KSS
 number of Gamma centered plane waves   1885
 number of Gamma centered shells     73
 number of bands     50
 maximum angular momentum components      2
 number of symmetry operations 24 (without inversion)

 k-point   1
 Eigenvalues in Hartree for ikpt=   1
   1     -0.7220 -0.0232 -0.0085 -0.0085  0.3225  0.7230  0.7837  0.7837  0.9008
          0.9090  0.9090  1.1037  1.1673  1.1673  1.4410  1.6006  1.6379  1.6379
          2.1466  2.1466  2.2241  2.2924  2.4006  2.4006  2.4990  2.5561  2.5561
          2.6182  2.7537  2.7537  2.9722  2.9722  3.0088  3.1142  3.1142  3.1172
          3.2283  3.2283  3.2389  3.2465  3.3992  3.3992  3.4060  3.5090  3.5238
          3.5238  3.5960  3.5960  3.5969  3.7160
 Writing out eigenvalues/vectors for ikpt=  1
 Occupation numbers for ikpt=  1
   1      2.0000  2.0000  2.0000  2.0000  0.0000  0.0000  0.0000  0.0000  0.0000
          0.0000  0.0000  0.0000  0.0000  0.0000  0.0000  0.0000  0.0000  0.0000
          0.0000  0.0000  0.0000  0.0000  0.0000  0.0000  0.0000  0.0000  0.0000
          0.0000  0.0000  0.0000  0.0000  0.0000  0.0000  0.0000  0.0000  0.0000
          0.0000  0.0000  0.0000  0.0000  0.0000  0.0000  0.0000  0.0000  0.0000
          0.0000  0.0000  0.0000  0.0000  0.0000

 k-point   2
 Eigenvalues in Hartree for ikpt=   2
   2     -0.7114 -0.0683 -0.0284 -0.0106  0.3758  0.5926  0.6918  0.6997  0.9651
          0.9697  1.0640  1.2892  1.3025  1.3314  1.4673  1.5884  1.6435  1.7585
          1.8229  1.9417  2.0671  2.2140  2.2502  2.3916  2.4179  2.5801  2.5855
          2.6206  2.7043  2.7245  2.7731  2.8329  2.8472  2.9164  3.0582  3.0588
          3.1321  3.1456  3.1603  3.2215  3.3208  3.4340  3.5251  3.5752  3.6451
          3.6649  3.7565  3.7594  3.8580  3.9209
 Writing out eigenvalues/vectors for ikpt=  2
 Occupation numbers for ikpt=  2
   2      2.0000  2.0000  2.0000  2.0000  0.0000  0.0000  0.0000  0.0000  0.0000
          0.0000  0.0000  0.0000  0.0000  0.0000  0.0000  0.0000  0.0000  0.0000
          0.0000  0.0000  0.0000  0.0000  0.0000  0.0000  0.0000  0.0000  0.0000
          0.0000  0.0000  0.0000  0.0000  0.0000  0.0000  0.0000  0.0000  0.0000
          0.0000  0.0000  0.0000  0.0000  0.0000  0.0000  0.0000  0.0000  0.0000
          0.0000  0.0000  0.0000  0.0000  0.0000

 k-point   3
 Eigenvalues in Hartree for ikpt=   3
   3     -0.7048 -0.0955 -0.0285 -0.0196  0.3921  0.5681  0.6613  0.6678  0.9781
          1.0851  1.1249  1.2700  1.3278  1.3442  1.5866  1.6042  1.7277  1.8140
          1.8973  1.8975  1.9927  2.1410  2.1605  2.2334  2.3178  2.3734  2.4278
          2.5068  2.6114  2.6722  2.6730  2.8431  2.9052  2.9186  2.9841  3.0329
          3.0632  3.1420  3.3378  3.3529  3.5218  3.5501  3.5812  3.6492  3.7267
          3.8014  3.8262  3.9131  3.9699  4.0759
 Writing out eigenvalues/vectors for ikpt=  3
 Occupation numbers for ikpt=  3
   3      2.0000  2.0000  2.0000  2.0000  0.0000  0.0000  0.0000  0.0000  0.0000
          0.0000  0.0000  0.0000  0.0000  0.0000  0.0000  0.0000  0.0000  0.0000
          0.0000  0.0000  0.0000  0.0000  0.0000  0.0000  0.0000  0.0000  0.0000
          0.0000  0.0000  0.0000  0.0000  0.0000  0.0000  0.0000  0.0000  0.0000
          0.0000  0.0000  0.0000  0.0000  0.0000  0.0000  0.0000  0.0000  0.0000
          0.0000  0.0000  0.0000  0.0000  0.0000

 k-point   4
 Eigenvalues in Hartree for ikpt=   4
   4     -0.7158 -0.0488 -0.0177 -0.0159  0.3598  0.6482  0.7178  0.7277  0.8192
          1.0409  1.0515  1.2150  1.2500  1.2802  1.4161  1.5936  1.5957  1.7118
          1.9473  2.0084  2.1525  2.1942  2.2814  2.3893  2.5266  2.5637  2.6507
          2.7065  2.7271  2.7959  2.9087  2.9254  2.9268  2.9630  2.9984  3.0653
          3.1054  3.1592  3.1889  3.2699  3.2786  3.3053  3.4411  3.4688  3.5647
          3.5913  3.6090  3.6280  3.7716  3.7748
 Writing out eigenvalues/vectors for ikpt=  4
 Occupation numbers for ikpt=  4
   4      2.0000  2.0000  2.0000  2.0000  0.0000  0.0000  0.0000  0.0000  0.0000
          0.0000  0.0000  0.0000  0.0000  0.0000  0.0000  0.0000  0.0000  0.0000
          0.0000  0.0000  0.0000  0.0000  0.0000  0.0000  0.0000  0.0000  0.0000
          0.0000  0.0000  0.0000  0.0000  0.0000  0.0000  0.0000  0.0000  0.0000
          0.0000  0.0000  0.0000  0.0000  0.0000  0.0000  0.0000  0.0000  0.0000
          0.0000  0.0000  0.0000  0.0000  0.0000

 k-point   5
 Eigenvalues in Hartree for ikpt=   5
   5     -0.7060 -0.0815 -0.0348 -0.0304  0.4270  0.5934  0.6569  0.7047  0.7683
          1.1975  1.2061  1.2560  1.3415  1.3870  1.5117  1.5295  1.5917  1.8013
          1.8608  1.9332  1.9943  2.0123  2.2179  2.3389  2.3725  2.4470  2.5390
          2.6023  2.6630  2.6938  2.7749  2.8545  2.9374  3.0268  3.0313  3.0700
          3.0770  3.1719  3.2257  3.3383  3.3709  3.4402  3.4642  3.4772  3.5278
          3.5585  3.7511  3.7948  3.8713  3.9880
 Writing out eigenvalues/vectors for ikpt=  5
 Occupation numbers for ikpt=  5
   5      2.0000  2.0000  2.0000  2.0000  0.0000  0.0000  0.0000  0.0000  0.0000
          0.0000  0.0000  0.0000  0.0000  0.0000  0.0000  0.0000  0.0000  0.0000
          0.0000  0.0000  0.0000  0.0000  0.0000  0.0000  0.0000  0.0000  0.0000
          0.0000  0.0000  0.0000  0.0000  0.0000  0.0000  0.0000  0.0000  0.0000
          0.0000  0.0000  0.0000  0.0000  0.0000  0.0000  0.0000  0.0000  0.0000
          0.0000  0.0000  0.0000  0.0000  0.0000

 k-point   6
 Eigenvalues in Hartree for ikpt=   6
   6     -0.6987 -0.0924 -0.0658 -0.0334  0.4892  0.5328  0.6318  0.6718  0.8779
          1.0795  1.2371  1.3279  1.3834  1.4428  1.6023  1.6329  1.7637  1.7982
          1.8693  1.8905  1.9950  2.0528  2.1187  2.1580  2.2075  2.3091  2.3473
          2.3996  2.5134  2.5689  2.7143  2.7554  2.7860  3.0301  3.0849  3.1258
          3.2320  3.3551  3.3876  3.4652  3.5145  3.5694  3.5945  3.6607  3.7409
          3.7703  3.8075  3.8735  3.9678  3.9893
 Writing out eigenvalues/vectors for ikpt=  6
 Occupation numbers for ikpt=  6
   6      2.0000  2.0000  2.0000  2.0000  0.0000  0.0000  0.0000  0.0000  0.0000
          0.0000  0.0000  0.0000  0.0000  0.0000  0.0000  0.0000  0.0000  0.0000
          0.0000  0.0000  0.0000  0.0000  0.0000  0.0000  0.0000  0.0000  0.0000
          0.0000  0.0000  0.0000  0.0000  0.0000  0.0000  0.0000  0.0000  0.0000
          0.0000  0.0000  0.0000  0.0000  0.0000  0.0000  0.0000  0.0000  0.0000
          0.0000  0.0000  0.0000  0.0000  0.0000

 k-point   7
 Eigenvalues in Hartree for ikpt=   7
   7     -0.7043 -0.0843 -0.0473 -0.0219  0.4229  0.5564  0.6634  0.6786  0.9080
          1.0700  1.1702  1.2994  1.3266  1.3851  1.5225  1.6877  1.6931  1.7663
          1.8529  1.9280  1.9959  2.0744  2.1940  2.2203  2.3205  2.4029  2.4278
          2.5331  2.6316  2.6710  2.7026  2.7790  2.8254  3.0052  3.0231  3.0953
          3.1386  3.2661  3.3418  3.3595  3.4210  3.4727  3.4850  3.5899  3.7268
          3.7457  3.8547  3.8836  3.9336  3.9735
 Writing out eigenvalues/vectors for ikpt=  7
 Occupation numbers for ikpt=  7
   7      2.0000  2.0000  2.0000  2.0000  0.0000  0.0000  0.0000  0.0000  0.0000
          0.0000  0.0000  0.0000  0.0000  0.0000  0.0000  0.0000  0.0000  0.0000
          0.0000  0.0000  0.0000  0.0000  0.0000  0.0000  0.0000  0.0000  0.0000
          0.0000  0.0000  0.0000  0.0000  0.0000  0.0000  0.0000  0.0000  0.0000
          0.0000  0.0000  0.0000  0.0000  0.0000  0.0000  0.0000  0.0000  0.0000
          0.0000  0.0000  0.0000  0.0000  0.0000

 k-point   8
 Eigenvalues in Hartree for ikpt=   8
   8     -0.6982 -0.1071 -0.0479 -0.0393  0.4979  0.5598  0.6184  0.7010  0.7478
          1.1858  1.3095  1.3297  1.4112  1.4982  1.5571  1.5917  1.7086  1.7256
          1.8157  1.8354  1.8540  2.0325  2.1402  2.1608  2.2017  2.4159  2.5207
          2.5757  2.6221  2.6900  2.7103  2.8249  2.8932  2.9048  2.9258  3.0319
          3.0418  3.1680  3.2563  3.3640  3.4917  3.5180  3.5901  3.7006  3.7722
          3.8783  3.9031  3.9586  4.0268  4.0853
 Writing out eigenvalues/vectors for ikpt=  8
 Occupation numbers for ikpt=  8
   8      2.0000  2.0000  2.0000  2.0000  0.0000  0.0000  0.0000  0.0000  0.0000
          0.0000  0.0000  0.0000  0.0000  0.0000  0.0000  0.0000  0.0000  0.0000
          0.0000  0.0000  0.0000  0.0000  0.0000  0.0000  0.0000  0.0000  0.0000
          0.0000  0.0000  0.0000  0.0000  0.0000  0.0000  0.0000  0.0000  0.0000
          0.0000  0.0000  0.0000  0.0000  0.0000  0.0000  0.0000  0.0000  0.0000
          0.0000  0.0000  0.0000  0.0000  0.0000

 k-point   9
 Eigenvalues in Hartree for ikpt=   9
   9     -0.7089 -0.0873 -0.0141 -0.0141  0.3674  0.5871  0.6757  0.6757  1.0001
          1.0554  1.0554  1.2491  1.3224  1.3224  1.6095  1.6345  1.6345  1.6733
          1.8844  1.8844  1.9512  2.3062  2.3062  2.3202  2.4428  2.5106  2.5106
          2.6230  2.6379  2.6379  2.6641  2.7722  2.7722  2.8740  2.9048  3.1471
          3.1471  3.2990  3.3062  3.3062  3.3882  3.4553  3.4553  3.5733  3.5921
          3.5921  3.8597  3.8693  3.8693  4.1039
 Writing out eigenvalues/vectors for ikpt=  9
 Occupation numbers for ikpt=  9
   9      2.0000  2.0000  2.0000  2.0000  0.0000  0.0000  0.0000  0.0000  0.0000
          0.0000  0.0000  0.0000  0.0000  0.0000  0.0000  0.0000  0.0000  0.0000
          0.0000  0.0000  0.0000  0.0000  0.0000  0.0000  0.0000  0.0000  0.0000
          0.0000  0.0000  0.0000  0.0000  0.0000  0.0000  0.0000  0.0000  0.0000
          0.0000  0.0000  0.0000  0.0000  0.0000  0.0000  0.0000  0.0000  0.0000
          0.0000  0.0000  0.0000  0.0000  0.0000

 k-point  10
 Eigenvalues in Hartree for ikpt=  10
  10     -0.7013 -0.0872 -0.0613 -0.0237  0.4431  0.5365  0.6589  0.6746  0.9328
          1.1051  1.1237  1.2946  1.3414  1.4126  1.5558  1.7368  1.7667  1.8322
          1.9018  1.9120  2.0030  2.0486  2.0851  2.1439  2.1838  2.3355  2.3642
          2.4772  2.5795  2.6875  2.6890  2.7290  2.8693  2.9229  2.9928  3.1162
          3.1834  3.3152  3.3547  3.4362  3.5172  3.5677  3.6018  3.7182  3.7670
          3.8086  3.8657  3.8885  3.9133  4.0523
 Writing out eigenvalues/vectors for ikpt= 10
 Occupation numbers for ikpt= 10
  10      2.0000  2.0000  2.0000  2.0000  0.0000  0.0000  0.0000  0.0000  0.0000
          0.0000  0.0000  0.0000  0.0000  0.0000  0.0000  0.0000  0.0000  0.0000
          0.0000  0.0000  0.0000  0.0000  0.0000  0.0000  0.0000  0.0000  0.0000
          0.0000  0.0000  0.0000  0.0000  0.0000  0.0000  0.0000  0.0000  0.0000
          0.0000  0.0000  0.0000  0.0000  0.0000  0.0000  0.0000  0.0000  0.0000
          0.0000  0.0000  0.0000  0.0000  0.0000
 Test on the normalization of the wavefunctions
  min sum_G |a(n,k,G)| =  1.000000
  max sum_G |a(n,k,G)| =  1.000000
 Test on the orthogonalization of the wavefunctions
  min sum_G a(n,k,G)a(n',k,G) =  0.000000
  max sum_G a(n,k,G)a(n',k,G) =  0.000000

================================================================================

 ----iterations are completed or convergence reached----


 outwf: write wavefunction to file io_files/LiF_nscf_o_WFK, with accesswff -1
 leave_test : synchronization done...
 outwf with iomode: -1, cpu:     0.03, wall:     0.03

 === Gap info ===
  >>>> For spin  1
   Minimum optical gap =   9.0080 [eV], located at k-point      :   0.1250  0.1250  0.1250
   Fundamental gap     =   9.0080 [eV], Top of valence bands at :   0.1250  0.1250  0.1250
                                        Bottom of conduction at :   0.1250  0.1250  0.1250

== END DATASET(S) ==============================================================
================================================================================
  
 -outvars: echo values of variables after computation  --------
            acell      7.7034756000E+00  7.7034756000E+00  7.7034756000E+00 Bohr
              amu      6.94100000E+00  1.89984032E+01
      chksymbreak           0
             ecut      4.00000000E+01 Hartree
           irdden           1
             iscf          -2
              kpt      1.25000000E-01  1.25000000E-01  1.25000000E-01
                       3.75000000E-01  1.25000000E-01  1.25000000E-01
                      -3.75000000E-01  1.25000000E-01  1.25000000E-01
                      -1.25000000E-01  1.25000000E-01  1.25000000E-01
                       3.75000000E-01  3.75000000E-01  1.25000000E-01
                      -3.75000000E-01  3.75000000E-01  1.25000000E-01
                      -1.25000000E-01  3.75000000E-01  1.25000000E-01
                      -3.75000000E-01 -3.75000000E-01  1.25000000E-01
                       3.75000000E-01  3.75000000E-01  3.75000000E-01
                      -3.75000000E-01  3.75000000E-01  3.75000000E-01
         kptrlatt        4    0    0      0    4    0      0    0    4
          kptrlen      2.17887193E+01
          kssform           3
P           mkmem          10
            natom           2
            nband          50
         nbandkss          50
           nbdbuf           2
            ngfft          32      32      32
             nkpt          10
            nstep        3000
             nsym          48
           ntypat           2
            rprim      0.0000000000E+00  5.0000000000E-01  5.0000000000E-01
                       5.0000000000E-01  0.0000000000E+00  5.0000000000E-01
                       5.0000000000E-01  5.0000000000E-01  0.0000000000E+00
           shiftk      5.00000000E-01  5.00000000E-01  5.00000000E-01
          spgroup         225
        symmorphi           0
           symrel      1  0  0   0  1  0   0  0  1      -1  0  0   0 -1  0   0  0 -1
                       0 -1  1   0 -1  0   1 -1  0       0  1 -1   0  1  0  -1  1  0
                      -1  0  0  -1  0  1  -1  1  0       1  0  0   1  0 -1   1 -1  0
                       0  1 -1   1  0 -1   0  0 -1       0 -1  1  -1  0  1   0  0  1
                      -1  0  0  -1  1  0  -1  0  1       1  0  0   1 -1  0   1  0 -1
                       0 -1  1   1 -1  0   0 -1  0       0  1 -1  -1  1  0   0  1  0
                       1  0  0   0  0  1   0  1  0      -1  0  0   0  0 -1   0 -1  0
                       0  1 -1   0  0 -1   1  0 -1       0 -1  1   0  0  1  -1  0  1
                      -1  0  1  -1  1  0  -1  0  0       1  0 -1   1 -1  0   1  0  0
                       0 -1  0   1 -1  0   0 -1  1       0  1  0  -1  1  0   0  1 -1
                       1  0 -1   0  0 -1   0  1 -1      -1  0  1   0  0  1   0 -1  1
                       0  1  0   0  0  1   1  0  0       0 -1  0   0  0 -1  -1  0  0
                       1  0 -1   0  1 -1   0  0 -1      -1  0  1   0 -1  1   0  0  1
                       0 -1  0   0 -1  1   1 -1  0       0  1  0   0  1 -1  -1  1  0
                      -1  0  1  -1  0  0  -1  1  0       1  0 -1   1  0  0   1 -1  0
                       0  1  0   1  0  0   0  0  1       0 -1  0  -1  0  0   0  0 -1
                       0  0 -1   0  1 -1   1  0 -1       0  0  1   0 -1  1  -1  0  1
                       1 -1  0   0 -1  1   0 -1  0      -1  1  0   0  1 -1   0  1  0
                       0  0  1   1  0  0   0  1  0       0  0 -1  -1  0  0   0 -1  0
                      -1  1  0  -1  0  0  -1  0  1       1 -1  0   1  0  0   1  0 -1
                       0  0  1   0  1  0   1  0  0       0  0 -1   0 -1  0  -1  0  0
                       1 -1  0   0 -1  0   0 -1  1      -1  1  0   0  1  0   0  1 -1
                       0  0 -1   1  0 -1   0  1 -1       0  0  1  -1  0  1   0 -1  1
                      -1  1  0  -1  0  1  -1  0  0       1 -1  0   1  0 -1   1  0  0
           tolwfr      1.00000000E-16
            typat      1  2
              wtk        0.03125    0.09375    0.09375    0.09375    0.09375    0.18750
                         0.18750    0.09375    0.03125    0.09375
           xangst      0.0000000000E+00  0.0000000000E+00  0.0000000000E+00
                      -2.0382518572E+00  0.0000000000E+00  0.0000000000E+00
            xcart      0.0000000000E+00  0.0000000000E+00  0.0000000000E+00
                      -3.8517378000E+00  0.0000000000E+00  0.0000000000E+00
             xred      0.0000000000E+00  0.0000000000E+00  0.0000000000E+00
                       5.0000000000E-01 -5.0000000000E-01 -5.0000000000E-01
            znucl        3.00000    9.00000

================================================================================
  

================================================================================

 Suggested references for the acknowledgment of ABINIT usage.

 The users of ABINIT have little formal obligations with respect to the ABINIT group
 (those specified in the GNU General Public License, http://www.gnu.org/copyleft/gpl.txt).
 However, it is common practice in the scientific literature,
 to acknowledge the efforts of people that have made the research possible.
 In this spirit, please find below suggested citations of work written by ABINIT developers,
 corresponding to implementations inside of ABINIT that you have used in the present run.
 Note also that it will be of great value to readers of publications presenting these results,
 to read papers enabling them to understand the theoretical formalism and details
 of the ABINIT implementation.
 For information on why they are suggested, see also http://www.abinit.org/about/?text=acknowledgments.

 [1] ABINIT : First-principles approach of materials and nanosystem properties.
 X. Gonze, B. Amadon, P.-M. Anglade, J.-M. Beuken, F. Bottin, P. Boulanger, F. Bruneval,
 D. Caliste, R. Caracas, M. Cote, T. Deutsch, L. Genovese, Ph. Ghosez, M. Giantomassi
 S. Goedecker, D.R. Hamann, P. Hermet, F. Jollet, G. Jomard, S. Leroux, M. Mancini, S. Mazevet,
 M.J.T. Oliveira, G. Onida, Y. Pouillon, T. Rangel, G.-M. Rignanese, D. Sangalli, R. Shaltaf,
 M. Torrent, M.J. Verstraete, G. Zerah, J.W. Zwanziger
 Computer Phys. Comm. 180, 2582-2615 (2009).
 Comment : the third generic paper describing the ABINIT project.
 Note that a version of this paper, that is not formatted for Computer Phys. Comm. 
 is available at http://www.abinit.org/about/ABINIT_CPC_v10.pdf .
 The licence allows the authors to put it on the Web.

 [2] A brief introduction to the ABINIT software package.
 X. Gonze, G.-M. Rignanese, M. Verstraete, J.-M. Beuken, Y. Pouillon, R. Caracas, F. Jollet,
 M. Torrent, G. Zerah, M. Mikami, Ph. Ghosez, M. Veithen, J.-Y. Raty, V. Olevano, F. Bruneval,
 L. Reining, R. Godby, G. Onida, D.R. Hamann, and D.C. Allan.
 Z. Kristallogr. 220, 558-562 (2005).
 Comment : the second generic paper describing the ABINIT project. Note that this paper
 should be cited especially if you are using the GW part of ABINIT, as several authors
 of this part are not in the list of authors of the first or third paper.
 The .pdf of the latter paper is available at http://www.abinit.org/about/zfk_0505-06_558-562.pdf.
 Note that it should not redistributed (Copyright by Oldenburg Wissenshaftverlag,
 the licence allows the authors to put it on the Web).


 And optionally :

 [3] First-principles computation of material properties : the ABINIT software project. 
 X. Gonze, J.-M. Beuken, R. Caracas, F. Detraux, M. Fuchs, G.-M. Rignanese, L. Sindic,
 M. Verstraete, G. Zerah, F. Jollet, M. Torrent, A. Roy, M. Mikami, Ph. Ghosez, J.-Y. Raty, D.C. Allan.
 Computational Materials Science 25, 478-492 (2002). http://dx.doi.org/10.1016/S0927-0256(02)00325-7
 Comment : the original paper describing the ABINIT project.

 [4] Fast radix 2, 3, 4 and 5 kernels for Fast Fourier Transformations
 on computers with overlapping multiply-add instructions.
 S. Goedecker, SIAM J. on Scientific Computing 18, 1605 (1997).
 Proc.   0 individual time (sec): cpu=         32.8  wall=         32.9

 Calculation completed.
.Delivered    3 WARNINGs and   2 COMMENTs to log file.
