
     Program PWSCF v.5.1 (svn rev. 11219) starts on 28Oct2016 at 21: 2:18 

     This program is part of the open-source Quantum ESPRESSO suite
     for quantum simulation of materials; please cite
         "P. Giannozzi et al., J. Phys.:Condens. Matter 21 395502 (2009);
          URL http://www.quantum-espresso.org", 
     in publications or presentations arising from this work. More details at
     http://www.quantum-espresso.org/quote

     Parallel version (MPI), running on     1 processors
     Waiting for input...
     Reading input from standard input

     Current dimensions of program PWSCF are:
     Max number of different atomic species (ntypx) = 10
     Max number of k-points (npk) =  40000
     Max angular momentum in pseudopotentials (lmaxx) =  3

     Atomic positions and unit cell read from directory:
     ./Si_nscf_yambo_kx12.save/


     Subspace diagonalization in iterative solution of the eigenvalue problem:
     a serial algorithm will be used


     G-vector sticks info
     --------------------
     sticks:   dense  smooth     PW     G-vecs:    dense   smooth      PW
     Sum         211     211     85                 2085     2085     459



     bravais-lattice index     =            2
     lattice parameter (alat)  =      10.1830  a.u.
     unit-cell volume          =     263.9777 (a.u.)^3
     number of atoms/cell      =            2
     number of atomic types    =            1
     number of electrons       =         8.00
     number of Kohn-Sham states=           16
     kinetic-energy cutoff     =      15.0000  Ry
     charge density cutoff     =      60.0000  Ry
     Exchange-correlation      =  SLA  PZ   NOGX NOGC ( 1  1  0  0 0 0)

     celldm(1)=  10.183000  celldm(2)=   0.000000  celldm(3)=   0.000000
     celldm(4)=   0.000000  celldm(5)=   0.000000  celldm(6)=   0.000000

     crystal axes: (cart. coord. in units of alat)
               a(1) = (  -0.500000   0.000000   0.500000 )  
               a(2) = (   0.000000   0.500000   0.500000 )  
               a(3) = (  -0.500000   0.500000   0.000000 )  

     reciprocal axes: (cart. coord. in units 2 pi/alat)
               b(1) = ( -1.000000 -1.000000  1.000000 )  
               b(2) = (  1.000000  1.000000  1.000000 )  
               b(3) = ( -1.000000  1.000000 -1.000000 )  


     PseudoPot. # 1 for Si read from file:
     ./Si.vbc.UPF
     MD5 check sum: 7974b67c806a44bbea7c2da40a3c413a
     Pseudo is Norm-conserving, Zval =  4.0
     Generated by new atomic code, or converted to UPF format
     Using radial grid of  431 points,  2 beta functions with: 
                l(1) =   0
                l(2) =   1

     atomic species   valence    mass     pseudopotential
        Si             4.00    28.08600     Si( 1.00)

     24 Sym. Ops. (no inversion) found


                                    s                        frac. trans.

      isym =  1     identity                                     

 cryst.   s( 1) = (     1          0          0      )
                  (     0          1          0      )
                  (     0          0          1      )

 cart.    s( 1) = (  1.0000000  0.0000000  0.0000000 )
                  (  0.0000000  1.0000000  0.0000000 )
                  (  0.0000000  0.0000000  1.0000000 )


      isym =  2     180 deg rotation - cart. axis [0,0,1]        

 cryst.   s( 2) = (     0          1         -1      )
                  (     1          0         -1      )
                  (     0          0         -1      )

 cart.    s( 2) = ( -1.0000000  0.0000000  0.0000000 )
                  (  0.0000000 -1.0000000  0.0000000 )
                  (  0.0000000  0.0000000  1.0000000 )


      isym =  3     180 deg rotation - cart. axis [0,1,0]        

 cryst.   s( 3) = (    -1          0          0      )
                  (    -1          0          1      )
                  (    -1          1          0      )

 cart.    s( 3) = ( -1.0000000  0.0000000  0.0000000 )
                  (  0.0000000  1.0000000  0.0000000 )
                  (  0.0000000  0.0000000 -1.0000000 )


      isym =  4     180 deg rotation - cart. axis [1,0,0]        

 cryst.   s( 4) = (     0         -1          1      )
                  (     0         -1          0      )
                  (     1         -1          0      )

 cart.    s( 4) = (  1.0000000  0.0000000  0.0000000 )
                  (  0.0000000 -1.0000000  0.0000000 )
                  (  0.0000000  0.0000000 -1.0000000 )


      isym =  5     120 deg rotation - cart. axis [-1,-1,-1]     

 cryst.   s( 5) = (    -1          0          1      )
                  (    -1          1          0      )
                  (    -1          0          0      )

 cart.    s( 5) = (  0.0000000  1.0000000  0.0000000 )
                  (  0.0000000  0.0000000  1.0000000 )
                  (  1.0000000  0.0000000  0.0000000 )


      isym =  6     120 deg rotation - cart. axis [-1,1,1]       

 cryst.   s( 6) = (     0          1          0      )
                  (     0          0          1      )
                  (     1          0          0      )

 cart.    s( 6) = (  0.0000000 -1.0000000  0.0000000 )
                  (  0.0000000  0.0000000  1.0000000 )
                  ( -1.0000000  0.0000000  0.0000000 )


      isym =  7     120 deg rotation - cart. axis [1,1,-1]       

 cryst.   s( 7) = (     1          0         -1      )
                  (     0          0         -1      )
                  (     0          1         -1      )

 cart.    s( 7) = (  0.0000000  1.0000000  0.0000000 )
                  (  0.0000000  0.0000000 -1.0000000 )
                  ( -1.0000000  0.0000000  0.0000000 )


      isym =  8     120 deg rotation - cart. axis [1,-1,1]       

 cryst.   s( 8) = (     0         -1          0      )
                  (     1         -1          0      )
                  (     0         -1          1      )

 cart.    s( 8) = (  0.0000000 -1.0000000  0.0000000 )
                  (  0.0000000  0.0000000 -1.0000000 )
                  (  1.0000000  0.0000000  0.0000000 )


      isym =  9     120 deg rotation - cart. axis [1,1,1]        

 cryst.   s( 9) = (     0          0         -1      )
                  (     0          1         -1      )
                  (     1          0         -1      )

 cart.    s( 9) = (  0.0000000  0.0000000  1.0000000 )
                  (  1.0000000  0.0000000  0.0000000 )
                  (  0.0000000  1.0000000  0.0000000 )


      isym = 10     120 deg rotation - cart. axis [-1,1,-1]      

 cryst.   s(10) = (    -1          1          0      )
                  (    -1          0          0      )
                  (    -1          0          1      )

 cart.    s(10) = (  0.0000000  0.0000000  1.0000000 )
                  ( -1.0000000  0.0000000  0.0000000 )
                  (  0.0000000 -1.0000000  0.0000000 )


      isym = 11     120 deg rotation - cart. axis [1,-1,-1]      

 cryst.   s(11) = (     0          0          1      )
                  (     1          0          0      )
                  (     0          1          0      )

 cart.    s(11) = (  0.0000000  0.0000000 -1.0000000 )
                  ( -1.0000000  0.0000000  0.0000000 )
                  (  0.0000000  1.0000000  0.0000000 )


      isym = 12     120 deg rotation - cart. axis [-1,-1,1]      

 cryst.   s(12) = (     1         -1          0      )
                  (     0         -1          1      )
                  (     0         -1          0      )

 cart.    s(12) = (  0.0000000  0.0000000 -1.0000000 )
                  (  1.0000000  0.0000000  0.0000000 )
                  (  0.0000000 -1.0000000  0.0000000 )


      isym = 13     inv. 180 deg rotation - cart. axis [1,1,0]   

 cryst.   s(13) = (     0          1          0      )
                  (     1          0          0      )
                  (     0          0          1      )

 cart.    s(13) = (  0.0000000 -1.0000000  0.0000000 )
                  ( -1.0000000  0.0000000  0.0000000 )
                  (  0.0000000  0.0000000  1.0000000 )


      isym = 14     inv. 180 deg rotation - cart. axis [1,-1,0]  

 cryst.   s(14) = (     1          0         -1      )
                  (     0          1         -1      )
                  (     0          0         -1      )

 cart.    s(14) = (  0.0000000  1.0000000  0.0000000 )
                  (  1.0000000  0.0000000  0.0000000 )
                  (  0.0000000  0.0000000  1.0000000 )


      isym = 15     inv.  90 deg rotation - cart. axis [0,0,-1]  

 cryst.   s(15) = (     0         -1          0      )
                  (     0         -1          1      )
                  (     1         -1          0      )

 cart.    s(15) = (  0.0000000 -1.0000000  0.0000000 )
                  (  1.0000000  0.0000000  0.0000000 )
                  (  0.0000000  0.0000000 -1.0000000 )


      isym = 16     inv.  90 deg rotation - cart. axis [0,0,1]   

 cryst.   s(16) = (    -1          0          1      )
                  (    -1          0          0      )
                  (    -1          1          0      )

 cart.    s(16) = (  0.0000000  1.0000000  0.0000000 )
                  ( -1.0000000  0.0000000  0.0000000 )
                  (  0.0000000  0.0000000 -1.0000000 )


      isym = 17     inv. 180 deg rotation - cart. axis [1,0,1]   

 cryst.   s(17) = (     1          0          0      )
                  (     0          0          1      )
                  (     0          1          0      )

 cart.    s(17) = (  0.0000000  0.0000000 -1.0000000 )
                  (  0.0000000  1.0000000  0.0000000 )
                  ( -1.0000000  0.0000000  0.0000000 )


      isym = 18     inv. 180 deg rotation - cart. axis [-1,0,1]  

 cryst.   s(18) = (    -1          0          0      )
                  (    -1          1          0      )
                  (    -1          0          1      )

 cart.    s(18) = (  0.0000000  0.0000000  1.0000000 )
                  (  0.0000000  1.0000000  0.0000000 )
                  (  1.0000000  0.0000000  0.0000000 )


      isym = 19     inv.  90 deg rotation - cart. axis [0,1,0]   

 cryst.   s(19) = (     0         -1          1      )
                  (     1         -1          0      )
                  (     0         -1          0      )

 cart.    s(19) = (  0.0000000  0.0000000 -1.0000000 )
                  (  0.0000000 -1.0000000  0.0000000 )
                  (  1.0000000  0.0000000  0.0000000 )


      isym = 20     inv.  90 deg rotation - cart. axis [0,-1,0]  

 cryst.   s(20) = (     0          1         -1      )
                  (     0          0         -1      )
                  (     1          0         -1      )

 cart.    s(20) = (  0.0000000  0.0000000  1.0000000 )
                  (  0.0000000 -1.0000000  0.0000000 )
                  ( -1.0000000  0.0000000  0.0000000 )


      isym = 21     inv. 180 deg rotation - cart. axis [0,1,1]   

 cryst.   s(21) = (     1         -1          0      )
                  (     0         -1          0      )
                  (     0         -1          1      )

 cart.    s(21) = (  1.0000000  0.0000000  0.0000000 )
                  (  0.0000000  0.0000000 -1.0000000 )
                  (  0.0000000 -1.0000000  0.0000000 )


      isym = 22     inv. 180 deg rotation - cart. axis [0,1,-1]  

 cryst.   s(22) = (     0          0          1      )
                  (     0          1          0      )
                  (     1          0          0      )

 cart.    s(22) = (  1.0000000  0.0000000  0.0000000 )
                  (  0.0000000  0.0000000  1.0000000 )
                  (  0.0000000  1.0000000  0.0000000 )


      isym = 23     inv.  90 deg rotation - cart. axis [-1,0,0]  

 cryst.   s(23) = (     0          0         -1      )
                  (     1          0         -1      )
                  (     0          1         -1      )

 cart.    s(23) = ( -1.0000000  0.0000000  0.0000000 )
                  (  0.0000000  0.0000000 -1.0000000 )
                  (  0.0000000  1.0000000  0.0000000 )


      isym = 24     inv.  90 deg rotation - cart. axis [1,0,0]   

 cryst.   s(24) = (    -1          1          0      )
                  (    -1          0          1      )
                  (    -1          0          0      )

 cart.    s(24) = ( -1.0000000  0.0000000  0.0000000 )
                  (  0.0000000  0.0000000  1.0000000 )
                  (  0.0000000 -1.0000000  0.0000000 )


     point group T_d (-43m) 
     there are  5 classes
     the character table:

       E     8C3   3C2   6S4   6s_d 
A_1    1.00  1.00  1.00  1.00  1.00
A_2    1.00  1.00  1.00 -1.00 -1.00
E      2.00 -1.00  2.00  0.00  0.00
T_1    3.00  0.00 -1.00  1.00 -1.00
T_2    3.00  0.00 -1.00 -1.00  1.00

     the symmetry operations in each class:
     E        1
     3C2      2    3    4
     8C3      5    7    8    6   12    9   10   11
     6s_d    13   14   17   18   21   22
     6S4     15   16   20   19   23   24

   Cartesian axes

     site n.     atom                  positions (alat units)
         1           Si  tau(   1) = (   0.0000000   0.0000000   0.0000000  )
         2           Si  tau(   2) = (   0.2500000   0.2500000   0.2500000  )

   Crystallographic axes

     site n.     atom                  positions (cryst. coord.)
         1           Si  tau(   1) = (  0.0000000  0.0000000  0.0000000  )
         2           Si  tau(   2) = ( -0.2500000  0.7500000 -0.2500000  )

     number of k points=    72
                       cart. coord. in units 2pi/alat
        k(    1) = (   0.0000000   0.0000000   0.0000000), wk =   0.0011574
        k(    2) = (  -0.0833333   0.0833333  -0.0833333), wk =   0.0092593
        k(    3) = (  -0.1666667   0.1666667  -0.1666667), wk =   0.0092593
        k(    4) = (  -0.2500000   0.2500000  -0.2500000), wk =   0.0092593
        k(    5) = (  -0.3333333   0.3333333  -0.3333333), wk =   0.0092593
        k(    6) = (  -0.4166667   0.4166667  -0.4166667), wk =   0.0092593
        k(    7) = (   0.5000000  -0.5000000   0.5000000), wk =   0.0046296
        k(    8) = (   0.0000000   0.1666667   0.0000000), wk =   0.0069444
        k(    9) = (  -0.0833333   0.2500000  -0.0833333), wk =   0.0277778
        k(   10) = (  -0.1666667   0.3333333  -0.1666667), wk =   0.0277778
        k(   11) = (  -0.2500000   0.4166667  -0.2500000), wk =   0.0277778
        k(   12) = (  -0.3333333   0.5000000  -0.3333333), wk =   0.0277778
        k(   13) = (   0.5833333  -0.4166667   0.5833333), wk =   0.0277778
        k(   14) = (   0.5000000  -0.3333333   0.5000000), wk =   0.0277778
        k(   15) = (   0.4166667  -0.2500000   0.4166667), wk =   0.0277778
        k(   16) = (   0.3333333  -0.1666667   0.3333333), wk =   0.0277778
        k(   17) = (   0.2500000  -0.0833333   0.2500000), wk =   0.0277778
        k(   18) = (   0.1666667  -0.0000000   0.1666667), wk =   0.0138889
        k(   19) = (   0.0000000   0.3333333   0.0000000), wk =   0.0069444
        k(   20) = (  -0.0833333   0.4166667  -0.0833333), wk =   0.0277778
        k(   21) = (  -0.1666667   0.5000000  -0.1666667), wk =   0.0277778
        k(   22) = (  -0.2500000   0.5833333  -0.2500000), wk =   0.0277778
        k(   23) = (   0.6666667  -0.3333333   0.6666667), wk =   0.0277778
        k(   24) = (   0.5833333  -0.2500000   0.5833333), wk =   0.0277778
        k(   25) = (   0.5000000  -0.1666667   0.5000000), wk =   0.0277778
        k(   26) = (   0.4166667  -0.0833333   0.4166667), wk =   0.0277778
        k(   27) = (   0.3333333  -0.0000000   0.3333333), wk =   0.0138889
        k(   28) = (   0.0000000   0.5000000   0.0000000), wk =   0.0069444
        k(   29) = (  -0.0833333   0.5833333  -0.0833333), wk =   0.0277778
        k(   30) = (  -0.1666667   0.6666667  -0.1666667), wk =   0.0277778
        k(   31) = (   0.7500000  -0.2500000   0.7500000), wk =   0.0277778
        k(   32) = (   0.6666667  -0.1666667   0.6666667), wk =   0.0277778
        k(   33) = (   0.5833333  -0.0833333   0.5833333), wk =   0.0277778
        k(   34) = (   0.5000000   0.0000000   0.5000000), wk =   0.0138889
        k(   35) = (   0.0000000   0.6666667   0.0000000), wk =   0.0069444
        k(   36) = (  -0.0833333   0.7500000  -0.0833333), wk =   0.0277778
        k(   37) = (   0.8333333  -0.1666667   0.8333333), wk =   0.0277778
        k(   38) = (   0.7500000  -0.0833333   0.7500000), wk =   0.0277778
        k(   39) = (   0.6666667  -0.0000000   0.6666667), wk =   0.0138889
        k(   40) = (   0.0000000   0.8333333   0.0000000), wk =   0.0069444
        k(   41) = (   0.9166667  -0.0833333   0.9166667), wk =   0.0277778
        k(   42) = (   0.8333333  -0.0000000   0.8333333), wk =   0.0138889
        k(   43) = (   0.0000000  -1.0000000   0.0000000), wk =   0.0034722
        k(   44) = (  -0.1666667   0.3333333   0.0000000), wk =   0.0277778
        k(   45) = (  -0.2500000   0.4166667  -0.0833333), wk =   0.0555556
        k(   46) = (  -0.3333333   0.5000000  -0.1666667), wk =   0.0555556
        k(   47) = (   0.5833333  -0.4166667   0.7500000), wk =   0.0555556
        k(   48) = (   0.5000000  -0.3333333   0.6666667), wk =   0.0277778
        k(   49) = (  -0.1666667   0.5000000   0.0000000), wk =   0.0277778
        k(   50) = (  -0.2500000   0.5833333  -0.0833333), wk =   0.0555556
        k(   51) = (   0.6666667  -0.3333333   0.8333333), wk =   0.0555556
        k(   52) = (   0.5833333  -0.2500000   0.7500000), wk =   0.0555556
        k(   53) = (   0.5000000  -0.1666667   0.6666667), wk =   0.0555556
        k(   54) = (   0.4166667  -0.0833333   0.5833333), wk =   0.0555556
        k(   55) = (   0.3333333  -0.0000000   0.5000000), wk =   0.0277778
        k(   56) = (  -0.1666667   0.6666667   0.0000000), wk =   0.0277778
        k(   57) = (   0.7500000  -0.2500000   0.9166667), wk =   0.0555556
        k(   58) = (   0.6666667  -0.1666667   0.8333333), wk =   0.0555556
        k(   59) = (   0.5833333  -0.0833333   0.7500000), wk =   0.0555556
        k(   60) = (   0.5000000   0.0000000   0.6666667), wk =   0.0277778
        k(   61) = (   0.8333333  -0.1666667   1.0000000), wk =   0.0277778
        k(   62) = (   0.7500000  -0.0833333   0.9166667), wk =   0.0555556
        k(   63) = (   0.6666667  -0.0000000   0.8333333), wk =   0.0277778
        k(   64) = (  -0.1666667  -1.0000000   0.0000000), wk =   0.0138889
        k(   65) = (   0.6666667  -0.3333333   1.0000000), wk =   0.0277778
        k(   66) = (   0.5833333  -0.2500000   0.9166667), wk =   0.0555556
        k(   67) = (   0.5000000  -0.1666667   0.8333333), wk =   0.0277778
        k(   68) = (   0.6666667  -0.1666667   1.0000000), wk =   0.0277778
        k(   69) = (   0.5833333  -0.0833333   0.9166667), wk =   0.0555556
        k(   70) = (   0.5000000  -0.0000000   0.8333333), wk =   0.0277778
        k(   71) = (  -0.3333333  -1.0000000   0.0000000), wk =   0.0138889
        k(   72) = (  -0.5000000  -1.0000000   0.0000000), wk =   0.0069444

                       cryst. coord.
        k(    1) = (   0.0000000   0.0000000   0.0000000), wk =   0.0011574
        k(    2) = (   0.0000000   0.0000000   0.0833333), wk =   0.0092593
        k(    3) = (   0.0000000   0.0000000   0.1666667), wk =   0.0092593
        k(    4) = (   0.0000000   0.0000000   0.2500000), wk =   0.0092593
        k(    5) = (   0.0000000   0.0000000   0.3333333), wk =   0.0092593
        k(    6) = (   0.0000000   0.0000000   0.4166667), wk =   0.0092593
        k(    7) = (   0.0000000   0.0000000  -0.5000000), wk =   0.0046296
        k(    8) = (   0.0000000   0.0833333   0.0833333), wk =   0.0069444
        k(    9) = (   0.0000000   0.0833333   0.1666667), wk =   0.0277778
        k(   10) = (   0.0000000   0.0833333   0.2500000), wk =   0.0277778
        k(   11) = (   0.0000000   0.0833333   0.3333333), wk =   0.0277778
        k(   12) = (   0.0000000   0.0833333   0.4166667), wk =   0.0277778
        k(   13) = (   0.0000000   0.0833333  -0.5000000), wk =   0.0277778
        k(   14) = (   0.0000000   0.0833333  -0.4166667), wk =   0.0277778
        k(   15) = (   0.0000000   0.0833333  -0.3333333), wk =   0.0277778
        k(   16) = (   0.0000000   0.0833333  -0.2500000), wk =   0.0277778
        k(   17) = (   0.0000000   0.0833333  -0.1666667), wk =   0.0277778
        k(   18) = (   0.0000000   0.0833333  -0.0833333), wk =   0.0138889
        k(   19) = (   0.0000000   0.1666667   0.1666667), wk =   0.0069444
        k(   20) = (   0.0000000   0.1666667   0.2500000), wk =   0.0277778
        k(   21) = (   0.0000000   0.1666667   0.3333333), wk =   0.0277778
        k(   22) = (   0.0000000   0.1666667   0.4166667), wk =   0.0277778
        k(   23) = (   0.0000000   0.1666667  -0.5000000), wk =   0.0277778
        k(   24) = (   0.0000000   0.1666667  -0.4166667), wk =   0.0277778
        k(   25) = (   0.0000000   0.1666667  -0.3333333), wk =   0.0277778
        k(   26) = (   0.0000000   0.1666667  -0.2500000), wk =   0.0277778
        k(   27) = (   0.0000000   0.1666667  -0.1666667), wk =   0.0138889
        k(   28) = (   0.0000000   0.2500000   0.2500000), wk =   0.0069444
        k(   29) = (   0.0000000   0.2500000   0.3333333), wk =   0.0277778
        k(   30) = (   0.0000000   0.2500000   0.4166667), wk =   0.0277778
        k(   31) = (   0.0000000   0.2500000  -0.5000000), wk =   0.0277778
        k(   32) = (   0.0000000   0.2500000  -0.4166667), wk =   0.0277778
        k(   33) = (   0.0000000   0.2500000  -0.3333333), wk =   0.0277778
        k(   34) = (   0.0000000   0.2500000  -0.2500000), wk =   0.0138889
        k(   35) = (   0.0000000   0.3333333   0.3333333), wk =   0.0069444
        k(   36) = (   0.0000000   0.3333333   0.4166667), wk =   0.0277778
        k(   37) = (   0.0000000   0.3333333  -0.5000000), wk =   0.0277778
        k(   38) = (   0.0000000   0.3333333  -0.4166667), wk =   0.0277778
        k(   39) = (   0.0000000   0.3333333  -0.3333333), wk =   0.0138889
        k(   40) = (   0.0000000   0.4166667   0.4166667), wk =   0.0069444
        k(   41) = (   0.0000000   0.4166667  -0.5000000), wk =   0.0277778
        k(   42) = (   0.0000000   0.4166667  -0.4166667), wk =   0.0138889
        k(   43) = (   0.0000000  -0.5000000  -0.5000000), wk =   0.0034722
        k(   44) = (   0.0833333   0.1666667   0.2500000), wk =   0.0277778
        k(   45) = (   0.0833333   0.1666667   0.3333333), wk =   0.0555556
        k(   46) = (   0.0833333   0.1666667   0.4166667), wk =   0.0555556
        k(   47) = (   0.0833333   0.1666667  -0.5000000), wk =   0.0555556
        k(   48) = (   0.0833333   0.1666667  -0.4166667), wk =   0.0277778
        k(   49) = (   0.0833333   0.2500000   0.3333333), wk =   0.0277778
        k(   50) = (   0.0833333   0.2500000   0.4166667), wk =   0.0555556
        k(   51) = (   0.0833333   0.2500000  -0.5000000), wk =   0.0555556
        k(   52) = (   0.0833333   0.2500000  -0.4166667), wk =   0.0555556
        k(   53) = (   0.0833333   0.2500000  -0.3333333), wk =   0.0555556
        k(   54) = (   0.0833333   0.2500000  -0.2500000), wk =   0.0555556
        k(   55) = (   0.0833333   0.2500000  -0.1666667), wk =   0.0277778
        k(   56) = (   0.0833333   0.3333333   0.4166667), wk =   0.0277778
        k(   57) = (   0.0833333   0.3333333  -0.5000000), wk =   0.0555556
        k(   58) = (   0.0833333   0.3333333  -0.4166667), wk =   0.0555556
        k(   59) = (   0.0833333   0.3333333  -0.3333333), wk =   0.0555556
        k(   60) = (   0.0833333   0.3333333  -0.2500000), wk =   0.0277778
        k(   61) = (   0.0833333   0.4166667  -0.5000000), wk =   0.0277778
        k(   62) = (   0.0833333   0.4166667  -0.4166667), wk =   0.0555556
        k(   63) = (   0.0833333   0.4166667  -0.3333333), wk =   0.0277778
        k(   64) = (   0.0833333  -0.5000000  -0.4166667), wk =   0.0138889
        k(   65) = (   0.1666667   0.3333333  -0.5000000), wk =   0.0277778
        k(   66) = (   0.1666667   0.3333333  -0.4166667), wk =   0.0555556
        k(   67) = (   0.1666667   0.3333333  -0.3333333), wk =   0.0277778
        k(   68) = (   0.1666667   0.4166667  -0.4166667), wk =   0.0277778
        k(   69) = (   0.1666667   0.4166667  -0.3333333), wk =   0.0555556
        k(   70) = (   0.1666667   0.4166667  -0.2500000), wk =   0.0277778
        k(   71) = (   0.1666667  -0.5000000  -0.3333333), wk =   0.0138889
        k(   72) = (   0.2500000  -0.5000000  -0.2500000), wk =   0.0069444

     Dense  grid:     2085 G-vectors     FFT dimensions: (  18,  18,  18)

     Largest allocated arrays     est. size (Mb)     dimensions
        Kohn-Sham Wavefunctions         0.07 Mb     (     271,   16)
        NL pseudopotentials             0.03 Mb     (     271,    8)
        Each V/rho on FFT grid          0.09 Mb     (    5832)
        Each G-vector array             0.02 Mb     (    2085)
        G-vector shells                 0.00 Mb     (      54)
     Largest temporary arrays     est. size (Mb)     dimensions
        Auxiliary wavefunctions         0.26 Mb     (     271,   64)
        Each subspace H/S matrix        0.06 Mb     (      64,   64)
        Each <psi_i|beta_j> matrix      0.00 Mb     (       8,   16)

     The potential is recalculated from file :
     ./Si_nscf_yambo_kx12.save/charge-density.dat

     Starting wfc are    8 randomized atomic wfcs +    8 random wfc

     Band Structure Calculation
     Davidson diagonalization with overlap

     Computing kpt #:     1
     total cpu time spent up to now is        0.4 secs

     Computing kpt #:     2
     total cpu time spent up to now is        0.7 secs

     Computing kpt #:     3
     total cpu time spent up to now is        0.9 secs

     Computing kpt #:     4
     total cpu time spent up to now is        1.2 secs

     Computing kpt #:     5
     total cpu time spent up to now is        1.4 secs

     Computing kpt #:     6
     total cpu time spent up to now is        1.6 secs

     Computing kpt #:     7
     total cpu time spent up to now is        1.8 secs

     Computing kpt #:     8
     total cpu time spent up to now is        2.0 secs

     Computing kpt #:     9
     total cpu time spent up to now is        2.2 secs

     Computing kpt #:    10
     total cpu time spent up to now is        2.4 secs

     Computing kpt #:    11
     total cpu time spent up to now is        2.7 secs

     Computing kpt #:    12
     total cpu time spent up to now is        2.9 secs

     Computing kpt #:    13
     total cpu time spent up to now is        3.1 secs

     Computing kpt #:    14
     total cpu time spent up to now is        3.4 secs

     Computing kpt #:    15
     total cpu time spent up to now is        3.6 secs

     Computing kpt #:    16
     total cpu time spent up to now is        3.8 secs

     Computing kpt #:    17
     total cpu time spent up to now is        4.0 secs

     Computing kpt #:    18
     total cpu time spent up to now is        4.2 secs

     Computing kpt #:    19
     total cpu time spent up to now is        4.4 secs

     Computing kpt #:    20
     total cpu time spent up to now is        4.6 secs

     Computing kpt #:    21
     total cpu time spent up to now is        4.8 secs

     Computing kpt #:    22
     total cpu time spent up to now is        5.1 secs

     Computing kpt #:    23
     total cpu time spent up to now is        5.3 secs

     Computing kpt #:    24
     total cpu time spent up to now is        5.6 secs

     Computing kpt #:    25
     total cpu time spent up to now is        5.8 secs

     Computing kpt #:    26
     total cpu time spent up to now is        6.0 secs

     Computing kpt #:    27
     total cpu time spent up to now is        6.2 secs

     Computing kpt #:    28
     total cpu time spent up to now is        6.4 secs

     Computing kpt #:    29
     total cpu time spent up to now is        6.7 secs

     Computing kpt #:    30
     total cpu time spent up to now is        6.9 secs

     Computing kpt #:    31
     total cpu time spent up to now is        7.1 secs

     Computing kpt #:    32
     total cpu time spent up to now is        7.4 secs

     Computing kpt #:    33
     total cpu time spent up to now is        7.6 secs

     Computing kpt #:    34
     total cpu time spent up to now is        7.9 secs

     Computing kpt #:    35
     total cpu time spent up to now is        8.1 secs

     Computing kpt #:    36
     total cpu time spent up to now is        8.3 secs

     Computing kpt #:    37
     total cpu time spent up to now is        8.6 secs

     Computing kpt #:    38
     total cpu time spent up to now is        8.8 secs

     Computing kpt #:    39
     total cpu time spent up to now is        9.1 secs

     Computing kpt #:    40
     total cpu time spent up to now is        9.3 secs

     Computing kpt #:    41
     total cpu time spent up to now is        9.6 secs

     Computing kpt #:    42
     total cpu time spent up to now is        9.8 secs

     Computing kpt #:    43
     total cpu time spent up to now is       10.0 secs

     Computing kpt #:    44
     total cpu time spent up to now is       10.3 secs

     Computing kpt #:    45
     total cpu time spent up to now is       10.5 secs

     Computing kpt #:    46
     total cpu time spent up to now is       10.7 secs

     Computing kpt #:    47
     total cpu time spent up to now is       11.0 secs

     Computing kpt #:    48
     total cpu time spent up to now is       11.2 secs

     Computing kpt #:    49
     total cpu time spent up to now is       11.4 secs

     Computing kpt #:    50
     total cpu time spent up to now is       11.6 secs

     Computing kpt #:    51
     total cpu time spent up to now is       11.9 secs

     Computing kpt #:    52
     total cpu time spent up to now is       12.1 secs

     Computing kpt #:    53
     total cpu time spent up to now is       12.4 secs

     Computing kpt #:    54
     total cpu time spent up to now is       12.6 secs

     Computing kpt #:    55
     total cpu time spent up to now is       12.8 secs

     Computing kpt #:    56
     total cpu time spent up to now is       13.1 secs

     Computing kpt #:    57
     total cpu time spent up to now is       13.3 secs

     Computing kpt #:    58
     total cpu time spent up to now is       13.6 secs

     Computing kpt #:    59
     total cpu time spent up to now is       13.8 secs

     Computing kpt #:    60
     total cpu time spent up to now is       14.0 secs

     Computing kpt #:    61
     total cpu time spent up to now is       14.2 secs

     Computing kpt #:    62
     total cpu time spent up to now is       14.5 secs

     Computing kpt #:    63
     total cpu time spent up to now is       14.7 secs

     Computing kpt #:    64
     total cpu time spent up to now is       14.9 secs

     Computing kpt #:    65
     total cpu time spent up to now is       15.1 secs

     Computing kpt #:    66
     total cpu time spent up to now is       15.4 secs

     Computing kpt #:    67
     total cpu time spent up to now is       15.6 secs

     Computing kpt #:    68
     total cpu time spent up to now is       15.8 secs

     Computing kpt #:    69
     total cpu time spent up to now is       16.1 secs

     Computing kpt #:    70
     total cpu time spent up to now is       16.4 secs

     Computing kpt #:    71
     total cpu time spent up to now is       16.6 secs

     Computing kpt #:    72
     total cpu time spent up to now is       16.8 secs

     ethr =  1.25E-14,  avg # of iterations = 31.7

     total cpu time spent up to now is       16.8 secs

     End of band structure calculation

          k = 0.0000 0.0000 0.0000 (   259 PWs)   bands (ev):

    -5.7589   6.3137   6.3137   6.3137   8.8902   8.8902   8.8902   9.8462
    14.1053  14.2317  14.2317  17.6014  17.6014  17.6014  21.5063  29.7789

     occupation numbers 
     1.0000   1.0000   1.0000   1.0000   0.0000   0.0000   0.0000   0.0000
     0.0000   0.0000   0.0000   0.0000   0.0000   0.0000   0.0000   0.0000

          k =-0.0833 0.0833-0.0833 (   271 PWs)   bands (ev):

    -5.6815   5.4513   6.1619   6.1619   8.9526   9.1047   9.1047  10.4710
    13.9340  13.9340  14.5012  17.2442  18.1988  18.1988  22.1508  28.7067

     occupation numbers 
     1.0000   1.0000   1.0000   1.0000   0.0000   0.0000   0.0000   0.0000
     0.0000   0.0000   0.0000   0.0000   0.0000   0.0000   0.0000   0.0000

          k =-0.1667 0.1667-0.1667 (   268 PWs)   bands (ev):

    -5.4070   3.9136   5.8453   5.8453   8.7211   9.5516   9.5516  11.8532
    13.5369  13.5369  15.2794  16.9391  19.5691  19.5691  23.5833  26.5485

     occupation numbers 
     1.0000   1.0000   1.0000   1.0000   0.0000   0.0000   0.0000   0.0000
     0.0000   0.0000   0.0000   0.0000   0.0000   0.0000   0.0000   0.0000

          k =-0.2500 0.2500-0.2500 (   268 PWs)   bands (ev):

    -4.9570   2.3418   5.5274   5.5274   8.3966   9.8512   9.8512  13.2760
    13.6389  13.6389  15.2113  18.1240  21.1527  21.1527  24.3979  24.4130

     occupation numbers 
     1.0000   1.0000   1.0000   1.0000   0.0000   0.0000   0.0000   0.0000
     0.0000   0.0000   0.0000   0.0000   0.0000   0.0000   0.0000   0.0000

          k =-0.3333 0.3333-0.3333 (   256 PWs)   bands (ev):

    -4.3619   0.9098   5.2866   5.2866   8.1457   9.8525   9.8525  14.1109
    14.4572  14.4572  15.4121  19.9171  21.2113  21.2113  23.2229  24.1930

     occupation numbers 
     1.0000   1.0000   1.0000   1.0000   0.0000   0.0000   0.0000   0.0000
     0.0000   0.0000   0.0000   0.0000   0.0000   0.0000   0.0000   0.0000

          k =-0.4167 0.4167-0.4167 (   263 PWs)   bands (ev):

    -3.7230  -0.2501   5.1340   5.1340   7.9789   9.7309   9.7309  14.0001
    15.7693  15.7693  16.6850  19.3677  19.3677  20.1691  23.7049  26.1628

     occupation numbers 
     1.0000   1.0000   1.0000   1.0000   0.0000   0.0000   0.0000   0.0000
     0.0000   0.0000   0.0000   0.0000   0.0000   0.0000   0.0000   0.0000

          k = 0.5000-0.5000 0.5000 (   266 PWs)   bands (ev):

    -3.3699  -0.7790   5.0819   5.0819   7.9229   9.6678   9.6678  13.9128
    17.1080  17.1080  17.6536  17.8167  17.8167  19.3373  25.8002  26.4047

     occupation numbers 
     1.0000   1.0000   1.0000   1.0000   0.0000   0.0000   0.0000   0.0000
     0.0000   0.0000   0.0000   0.0000   0.0000   0.0000   0.0000   0.0000

          k = 0.0000 0.1667 0.0000 (   267 PWs)   bands (ev):

    -5.6452   5.6418   5.8656   5.8656   8.5957   9.4853   9.4853  10.4557
    13.4042  14.3686  14.6339  17.8149  17.8149  18.1492  22.4266  28.2686

     occupation numbers 
     1.0000   1.0000   1.0000   1.0000   0.0000   0.0000   0.0000   0.0000
     0.0000   0.0000   0.0000   0.0000   0.0000   0.0000   0.0000   0.0000

          k =-0.0833 0.2500-0.0833 (   267 PWs)   bands (ev):

    -5.4308   4.3861   5.4904   5.6982   8.6174   9.5970  10.0374  11.2949
    13.0506  14.2901  15.3851  17.3860  18.5883  19.4314  23.6612  26.4206

     occupation numbers 
     1.0000   1.0000   1.0000   1.0000   0.0000   0.0000   0.0000   0.0000
     0.0000   0.0000   0.0000   0.0000   0.0000   0.0000   0.0000   0.0000

          k =-0.1667 0.3333-0.1667 (   265 PWs)   bands (ev):

    -5.0417   2.8580   5.1700   5.3685   8.7692   9.5849  10.4311  11.7658
    13.8127  14.3367  15.7730  17.7820  20.0049  21.1348  24.1783  24.5293

     occupation numbers 
     1.0000   1.0000   1.0000   1.0000   0.0000   0.0000   0.0000   0.0000
     0.0000   0.0000   0.0000   0.0000   0.0000   0.0000   0.0000   0.0000

          k =-0.2500 0.4167-0.2500 (   265 PWs)   bands (ev):

    -4.4923   1.3904   4.9568   5.0066   8.6492   9.6447  10.4442  12.3295
    15.0009  15.0145  15.5929  19.3794  20.7630  21.9759  23.0458  23.7019

     occupation numbers 
     1.0000   1.0000   1.0000   1.0000   0.0000   0.0000   0.0000   0.0000
     0.0000   0.0000   0.0000   0.0000   0.0000   0.0000   0.0000   0.0000

          k =-0.3333 0.5000-0.3333 (   263 PWs)   bands (ev):

    -3.8482   0.1321   4.7087   4.8654   8.4945   9.5956  10.2439  13.3737
    15.0025  16.2213  16.8431  19.1387  19.6569  21.6075  23.3583  24.7050

     occupation numbers 
     1.0000   1.0000   1.0000   1.0000   0.0000   0.0000   0.0000   0.0000
     0.0000   0.0000   0.0000   0.0000   0.0000   0.0000   0.0000   0.0000

          k = 0.5833-0.4167 0.5833 (   259 PWs)   bands (ev):

    -3.3327  -0.6647   4.4965   4.8994   8.4233   9.5874  10.0415  14.1730
    15.4451  17.0544  17.8068  17.9969  18.7366  20.4175  25.1507  26.7677

     occupation numbers 
     1.0000   1.0000   1.0000   1.0000   0.0000   0.0000   0.0000   0.0000
     0.0000   0.0000   0.0000   0.0000   0.0000   0.0000   0.0000   0.0000

          k = 0.5000-0.3333 0.5000 (   258 PWs)   bands (ev):

    -3.4604  -0.4796   4.3967   5.0474   8.4546   9.7058   9.9270  14.2654
    15.4341  15.8987  17.6140  18.4981  19.7069  20.3506  24.2476  26.1348

     occupation numbers 
     1.0000   1.0000   1.0000   1.0000   0.0000   0.0000   0.0000   0.0000
     0.0000   0.0000   0.0000   0.0000   0.0000   0.0000   0.0000   0.0000

          k = 0.4167-0.2500 0.4167 (   258 PWs)   bands (ev):

    -4.0658   0.5231   4.4211   5.2955   8.5887   9.8923   9.9264  13.8095
    14.0258  15.4192  16.9464  19.1149  20.8340  21.6054  23.0183  23.9967

     occupation numbers 
     1.0000   1.0000   1.0000   1.0000   0.0000   0.0000   0.0000   0.0000
     0.0000   0.0000   0.0000   0.0000   0.0000   0.0000   0.0000   0.0000

          k = 0.3333-0.1667 0.3333 (   262 PWs)   bands (ev):

    -4.6896   1.8678   4.5782   5.6101   8.8134   9.8116  10.0876  12.8794
    13.0942  15.4965  15.6401  18.7216  20.6744  22.4523  22.5075  24.4888

     occupation numbers 
     1.0000   1.0000   1.0000   1.0000   0.0000   0.0000   0.0000   0.0000
     0.0000   0.0000   0.0000   0.0000   0.0000   0.0000   0.0000   0.0000

          k = 0.2500-0.0833 0.2500 (   268 PWs)   bands (ev):

    -5.1932   3.3555   4.8830   5.9483   9.0916   9.5062   9.8803  12.1176
    12.8630  14.3865  15.8183  17.4212  19.2670  20.9976  24.2380  24.5119

     occupation numbers 
     1.0000   1.0000   1.0000   1.0000   0.0000   0.0000   0.0000   0.0000
     0.0000   0.0000   0.0000   0.0000   0.0000   0.0000   0.0000   0.0000

          k = 0.1667-0.0000 0.1667 (   271 PWs)   bands (ev):

    -5.5280   4.7284   5.4133   6.1903   9.1408   9.2940   9.3069  11.2390
    13.2656  14.0414  15.0827  17.4129  18.0658  19.4104  23.0687  26.5461

     occupation numbers 
     1.0000   1.0000   1.0000   1.0000   0.0000   0.0000   0.0000   0.0000
     0.0000   0.0000   0.0000   0.0000   0.0000   0.0000   0.0000   0.0000

          k = 0.0000 0.3333 0.0000 (   266 PWs)   bands (ev):

    -5.2764   4.3131   5.0790   5.0790   7.9855  10.6718  10.7169  10.7169
    13.0456  14.7792  15.9521  18.4613  18.4613  19.0278  24.7230  26.0002

     occupation numbers 
     1.0000   1.0000   1.0000   1.0000   0.0000   0.0000   0.0000   0.0000
     0.0000   0.0000   0.0000   0.0000   0.0000   0.0000   0.0000   0.0000

          k =-0.0833 0.4167-0.0833 (   266 PWs)   bands (ev):

    -4.9416   3.1974   4.7335   4.7384   8.0070  10.2524  11.0500  11.2886
    14.0276  15.0037  16.7423  18.2719  19.3256  20.5162  24.1290  24.4841

     occupation numbers 
     1.0000   1.0000   1.0000   1.0000   0.0000   0.0000   0.0000   0.0000
     0.0000   0.0000   0.0000   0.0000   0.0000   0.0000   0.0000   0.0000

          k =-0.1667 0.5000-0.1667 (   259 PWs)   bands (ev):

    -4.4420   1.8558   4.2760   4.5177   8.2583  10.4289  10.8837  11.4600
    15.5538  15.5943  16.6974  19.1924  20.2855  21.8152  22.4978  23.4432

     occupation numbers 
     1.0000   1.0000   1.0000   1.0000   0.0000   0.0000   0.0000   0.0000
     0.0000   0.0000   0.0000   0.0000   0.0000   0.0000   0.0000   0.0000

          k =-0.2500 0.5833-0.2500 (   259 PWs)   bands (ev):

    -3.8185   0.5880   3.8293   4.4312   8.3079  10.6349  11.2751  11.3974
    16.2009  16.7332  17.2276  19.0169  19.6187  21.9206  23.5636  24.6481

     occupation numbers 
     1.0000   1.0000   1.0000   1.0000   0.0000   0.0000   0.0000   0.0000
     0.0000   0.0000   0.0000   0.0000   0.0000   0.0000   0.0000   0.0000

          k = 0.6667-0.3333 0.6667 (   259 PWs)   bands (ev):

    -3.2106  -0.3771   3.4782   4.4851   8.3476  10.4756  10.9938  12.7898
    15.7375  17.0072  18.1496  18.3676  19.0695  22.6275  24.4141  25.5927

     occupation numbers 
     1.0000   1.0000   1.0000   1.0000   0.0000   0.0000   0.0000   0.0000
     0.0000   0.0000   0.0000   0.0000   0.0000   0.0000   0.0000   0.0000

          k = 0.5833-0.2500 0.5833 (   255 PWs)   bands (ev):

    -3.0883  -0.5429   3.2566   4.6758   8.5069  10.4191  10.7605  14.3595
    14.9086  15.2647  17.5121  20.1201  20.5683  21.0678  24.2184  26.4278

     occupation numbers 
     1.0000   1.0000   1.0000   1.0000   0.0000   0.0000   0.0000   0.0000
     0.0000   0.0000   0.0000   0.0000   0.0000   0.0000   0.0000   0.0000

          k = 0.5000-0.1667 0.5000 (   258 PWs)   bands (ev):

    -3.6121   0.2425   3.1901   4.9798   8.7872  10.4660  10.5891  13.6487
    13.7750  15.7697  17.8452  19.2918  21.2953  22.0110  22.7546  24.4174

     occupation numbers 
     1.0000   1.0000   1.0000   1.0000   0.0000   0.0000   0.0000   0.0000
     0.0000   0.0000   0.0000   0.0000   0.0000   0.0000   0.0000   0.0000

          k = 0.4167-0.0833 0.4167 (   261 PWs)   bands (ev):

    -4.2566   1.4218   3.3256   5.3566   9.1450  10.3549  10.5141  12.4877
    12.7747  16.6004  17.5770  18.5940  20.2453  21.7942  23.4364  24.4481

     occupation numbers 
     1.0000   1.0000   1.0000   1.0000   0.0000   0.0000   0.0000   0.0000
     0.0000   0.0000   0.0000   0.0000   0.0000   0.0000   0.0000   0.0000

          k = 0.3333-0.0000 0.3333 (   269 PWs)   bands (ev):

    -4.8063   2.5874   3.8189   5.7318   9.4207   9.9011  10.1815  12.0229
    12.5102  15.8462  16.7362  17.8727  19.7952  22.0620  22.5931  25.1678

     occupation numbers 
     1.0000   1.0000   1.0000   1.0000   0.0000   0.0000   0.0000   0.0000
     0.0000   0.0000   0.0000   0.0000   0.0000   0.0000   0.0000   0.0000

          k = 0.0000 0.5000 0.0000 (   258 PWs)   bands (ev):

    -4.6628   2.8270   4.3679   4.3679   7.3936   9.4452  12.1591  12.1591
    14.4917  15.4737  17.6616  19.4497  19.4497  20.0880  23.8846  23.8846

     occupation numbers 
     1.0000   1.0000   1.0000   1.0000   0.0000   0.0000   0.0000   0.0000
     0.0000   0.0000   0.0000   0.0000   0.0000   0.0000   0.0000   0.0000

          k =-0.0833 0.5833-0.0833 (   257 PWs)   bands (ev):

    -4.2181   1.9026   3.8892   4.1158   7.4821   9.0748  12.4550  12.6491
    15.7775  16.0524  18.1738  19.6725  20.0276  21.3191  22.4557  23.0599

     occupation numbers 
     1.0000   1.0000   1.0000   1.0000   0.0000   0.0000   0.0000   0.0000
     0.0000   0.0000   0.0000   0.0000   0.0000   0.0000   0.0000   0.0000

          k =-0.1667 0.6667-0.1667 (   259 PWs)   bands (ev):

    -3.6297   0.8456   3.2397   4.0042   7.7031   9.5553  12.3117  12.6036
    17.1482  17.4093  17.7031  18.9944  20.0900  21.5358  22.8767  24.4234

     occupation numbers 
     1.0000   1.0000   1.0000   1.0000   0.0000   0.0000   0.0000   0.0000
     0.0000   0.0000   0.0000   0.0000   0.0000   0.0000   0.0000   0.0000

          k = 0.7500-0.2500 0.7500 (   254 PWs)   bands (ev):

    -2.9840  -0.1067   2.6801   4.0455   7.7948  10.7739  12.1429  12.3230
    16.5917  17.0631  18.7452  19.1170  19.3716  23.2752  24.3576  25.1589

     occupation numbers 
     1.0000   1.0000   1.0000   1.0000   0.0000   0.0000   0.0000   0.0000
     0.0000   0.0000   0.0000   0.0000   0.0000   0.0000   0.0000   0.0000

          k = 0.6667-0.1667 0.6667 (   254 PWs)   bands (ev):

    -2.6406  -0.5413   2.3057   4.2306   7.9805  11.8068  12.0175  12.5586
    15.1475  15.2539  18.9142  20.5143  20.8749  23.4489  23.9301  25.0215

     occupation numbers 
     1.0000   1.0000   1.0000   1.0000   0.0000   0.0000   0.0000   0.0000
     0.0000   0.0000   0.0000   0.0000   0.0000   0.0000   0.0000   0.0000

          k = 0.5833-0.0833 0.5833 (   256 PWs)   bands (ev):

    -3.0367  -0.0270   2.1747   4.5448   8.3220  11.7077  11.7998  13.5524
    13.7402  14.3278  18.9919  21.2382  21.6243  22.3848  22.8169  25.0292

     occupation numbers 
     1.0000   1.0000   1.0000   1.0000   0.0000   0.0000   0.0000   0.0000
     0.0000   0.0000   0.0000   0.0000   0.0000   0.0000   0.0000   0.0000

          k = 0.5000 0.0000 0.5000 (   256 PWs)   bands (ev):

    -3.6771   0.8177   2.4387   4.9489   8.7753  11.1612  11.4877  12.5090
    12.8691  16.0398  18.9850  19.7277  19.7921  23.1035  23.7379  23.9342

     occupation numbers 
     1.0000   1.0000   1.0000   1.0000   0.0000   0.0000   0.0000   0.0000
     0.0000   0.0000   0.0000   0.0000   0.0000   0.0000   0.0000   0.0000

          k = 0.0000 0.6667 0.0000 (   250 PWs)   bands (ev):

    -3.8194   1.3200   3.8281   3.8281   6.9792   8.2656  13.6937  13.6937
    16.2525  16.4502  19.3507  20.0386  20.0386  21.5066  22.7969  22.7969

     occupation numbers 
     1.0000   1.0000   1.0000   1.0000   0.0000   0.0000   0.0000   0.0000
     0.0000   0.0000   0.0000   0.0000   0.0000   0.0000   0.0000   0.0000

          k =-0.0833 0.7500-0.0833 (   255 PWs)   bands (ev):

    -3.2792   0.5234   3.3191   3.6809   7.1472   8.1324  14.0150  14.0703
    17.3653  17.5396  18.6781  19.0607  20.8386  21.5364  22.2549  23.6427

     occupation numbers 
     1.0000   1.0000   1.0000   1.0000   0.0000   0.0000   0.0000   0.0000
     0.0000   0.0000   0.0000   0.0000   0.0000   0.0000   0.0000   0.0000

          k = 0.8333-0.1667 0.8333 (   251 PWs)   bands (ev):

    -2.6278  -0.2607   2.5615   3.6877   7.3222   9.0143  13.8858  13.8933
    17.0512  17.2273  18.9130  19.2959  21.0735  22.2746  22.6261  25.1082

     occupation numbers 
     1.0000   1.0000   1.0000   1.0000   0.0000   0.0000   0.0000   0.0000
     0.0000   0.0000   0.0000   0.0000   0.0000   0.0000   0.0000   0.0000

          k = 0.7500-0.0833 0.7500 (   257 PWs)   bands (ev):

    -2.1426  -0.7712   1.9582   3.8445   7.4994  10.4837  13.5279  13.7157
    15.3243  15.4209  20.7573  20.7596  21.0480  22.8775  23.4416  23.7609

     occupation numbers 
     1.0000   1.0000   1.0000   1.0000   0.0000   0.0000   0.0000   0.0000
     0.0000   0.0000   0.0000   0.0000   0.0000   0.0000   0.0000   0.0000

          k = 0.6667-0.0000 0.6667 (   256 PWs)   bands (ev):

    -2.4229  -0.4789   1.7481   4.1417   7.8457  12.1427  12.8894  13.4840
    13.8081  14.1262  20.7528  21.2800  22.1609  22.3866  23.2281  24.1748

     occupation numbers 
     1.0000   1.0000   1.0000   1.0000   0.0000   0.0000   0.0000   0.0000
     0.0000   0.0000   0.0000   0.0000   0.0000   0.0000   0.0000   0.0000

          k = 0.0000 0.8333 0.0000 (   254 PWs)   bands (ev):

    -2.7727  -0.1531   3.4925   3.4925   6.8198   7.4274  15.2754  15.2754
    17.6648  17.9374  18.8228  18.8228  20.1278  20.8849  23.3466  24.1110

     occupation numbers 
     1.0000   1.0000   1.0000   1.0000   0.0000   0.0000   0.0000   0.0000
     0.0000   0.0000   0.0000   0.0000   0.0000   0.0000   0.0000   0.0000

          k = 0.9167-0.0833 0.9167 (   253 PWs)   bands (ev):

    -2.1401  -0.8536   3.0411   3.4591   7.0166   7.6026  15.5262  15.6096
    17.3428  17.4444  18.8986  19.2251  20.6012  20.6132  23.4662  25.3669

     occupation numbers 
     1.0000   1.0000   1.0000   1.0000   0.0000   0.0000   0.0000   0.0000
     0.0000   0.0000   0.0000   0.0000   0.0000   0.0000   0.0000   0.0000

          k = 0.8333-0.0000 0.8333 (   256 PWs)   bands (ev):

    -1.6633  -1.2746   2.3377   3.5796   7.1789   8.8328  14.9640  15.4574
    15.5687  15.9624  20.4069  20.6613  20.8698  21.7214  23.2482  23.6339

     occupation numbers 
     1.0000   1.0000   1.0000   1.0000   0.0000   0.0000   0.0000   0.0000
     0.0000   0.0000   0.0000   0.0000   0.0000   0.0000   0.0000   0.0000

          k = 0.0000-1.0000 0.0000 (   254 PWs)   bands (ev):

    -1.5346  -1.5346   3.3806   3.3806   6.9509   6.9509  16.5388  16.5388
    17.5425  17.5425  19.1484  19.1484  19.3830  19.3830  25.3255  25.3255

     occupation numbers 
     1.0000   1.0000   1.0000   1.0000   0.0000   0.0000   0.0000   0.0000
     0.0000   0.0000   0.0000   0.0000   0.0000   0.0000   0.0000   0.0000

          k =-0.1667 0.3333 0.0000 (   263 PWs)   bands (ev):

    -5.1574   3.5945   4.6226   5.5910   8.6416   9.9463  10.5191  11.2691
    13.2955  14.6604  16.1850  17.7643  18.8201  20.6945  24.2553  24.9125

     occupation numbers 
     1.0000   1.0000   1.0000   1.0000   0.0000   0.0000   0.0000   0.0000
     0.0000   0.0000   0.0000   0.0000   0.0000   0.0000   0.0000   0.0000

          k =-0.2500 0.4167-0.0833 (   264 PWs)   bands (ev):

    -4.7113   2.3258   4.0839   5.3068   8.9361   9.9001  10.9287  11.2375
    13.7534  15.7760  16.5475  18.3371  20.0963  22.1719  22.2911  24.6886

     occupation numbers 
     1.0000   1.0000   1.0000   1.0000   0.0000   0.0000   0.0000   0.0000
     0.0000   0.0000   0.0000   0.0000   0.0000   0.0000   0.0000   0.0000

          k =-0.3333 0.5000-0.1667 (   262 PWs)   bands (ev):

    -4.1215   0.9904   3.8172   4.9681   8.9986   9.7350  10.9904  11.9008
    14.6297  16.1573  17.3138  18.9403  20.5237  21.9049  22.7995  24.4761

     occupation numbers 
     1.0000   1.0000   1.0000   1.0000   0.0000   0.0000   0.0000   0.0000
     0.0000   0.0000   0.0000   0.0000   0.0000   0.0000   0.0000   0.0000

          k = 0.5833-0.4167 0.7500 (   256 PWs)   bands (ev):

    -3.4765  -0.1283   3.6974   4.7143   8.9630   9.5178  10.9122  13.1354
    15.3995  16.0874  17.6901  18.9188  19.8387  22.1166  23.5082  25.1038

     occupation numbers 
     1.0000   1.0000   1.0000   1.0000   0.0000   0.0000   0.0000   0.0000
     0.0000   0.0000   0.0000   0.0000   0.0000   0.0000   0.0000   0.0000

          k = 0.5000-0.3333 0.6667 (   252 PWs)   bands (ev):

    -3.1183  -0.6450   3.6640   4.6196   8.9519   9.4194  10.8684  14.4061
    14.6817  16.3240  17.9469  18.3287  20.5256  20.8662  25.4497  25.6460

     occupation numbers 
     1.0000   1.0000   1.0000   1.0000   0.0000   0.0000   0.0000   0.0000
     0.0000   0.0000   0.0000   0.0000   0.0000   0.0000   0.0000   0.0000

          k =-0.1667 0.5000 0.0000 (   263 PWs)   bands (ev):

    -4.5525   2.4046   3.9096   4.6430   8.0763   9.8520  11.1990  12.0315
    14.6273  15.9413  17.5127  18.6282  19.9575  21.6016  22.2624  24.2127

     occupation numbers 
     1.0000   1.0000   1.0000   1.0000   0.0000   0.0000   0.0000   0.0000
     0.0000   0.0000   0.0000   0.0000   0.0000   0.0000   0.0000   0.0000

          k =-0.2500 0.5833-0.0833 (   258 PWs)   bands (ev):

    -4.0064   1.3332   3.3639   4.3430   8.4175  10.0672  10.9402  12.4249
    15.3397  17.3144  17.5566  19.0593  20.3859  21.5386  22.3008  24.5402

     occupation numbers 
     1.0000   1.0000   1.0000   1.0000   0.0000   0.0000   0.0000   0.0000
     0.0000   0.0000   0.0000   0.0000   0.0000   0.0000   0.0000   0.0000

          k = 0.6667-0.3333 0.8333 (   259 PWs)   bands (ev):

    -3.3618   0.2441   3.0062   4.1216   8.5395  10.5520  11.1715  12.4061
    16.2417  16.5545  18.2309  19.2846  19.8568  22.1443  24.0849  24.9249

     occupation numbers 
     1.0000   1.0000   1.0000   1.0000   0.0000   0.0000   0.0000   0.0000
     0.0000   0.0000   0.0000   0.0000   0.0000   0.0000   0.0000   0.0000

          k = 0.5833-0.2500 0.7500 (   256 PWs)   bands (ev):

    -2.8408  -0.4894   2.7586   4.1026   8.6749  10.2816  12.2931  12.6557
    14.6830  16.9995  18.2534  18.8380  21.0360  23.0569  24.3755  25.2390

     occupation numbers 
     1.0000   1.0000   1.0000   1.0000   0.0000   0.0000   0.0000   0.0000
     0.0000   0.0000   0.0000   0.0000   0.0000   0.0000   0.0000   0.0000

          k = 0.5000-0.1667 0.6667 (   259 PWs)   bands (ev):

    -2.9851  -0.2951   2.6320   4.2810   8.9358  10.0815  12.2073  13.0455
    14.3851  15.7557  18.2408  20.1816  21.3623  22.4472  23.2484  25.4169

     occupation numbers 
     1.0000   1.0000   1.0000   1.0000   0.0000   0.0000   0.0000   0.0000
     0.0000   0.0000   0.0000   0.0000   0.0000   0.0000   0.0000   0.0000

          k = 0.4167-0.0833 0.5833 (   259 PWs)   bands (ev):

    -3.5995   0.6143   2.6962   4.6088   9.3185   9.9333  11.6550  12.1539
    14.4453  16.0663  18.5524  19.5611  20.6176  21.9945  23.4553  24.6250

     occupation numbers 
     1.0000   1.0000   1.0000   1.0000   0.0000   0.0000   0.0000   0.0000
     0.0000   0.0000   0.0000   0.0000   0.0000   0.0000   0.0000   0.0000

          k = 0.3333-0.0000 0.5000 (   263 PWs)   bands (ev):

    -4.2208   1.6170   3.1132   5.0051   9.5343   9.7237  11.0132  11.7138
    13.7257  17.1543  17.6206  18.5672  20.1314  21.5884  23.0050  25.1123

     occupation numbers 
     1.0000   1.0000   1.0000   1.0000   0.0000   0.0000   0.0000   0.0000
     0.0000   0.0000   0.0000   0.0000   0.0000   0.0000   0.0000   0.0000

          k =-0.1667 0.6667 0.0000 (   257 PWs)   bands (ev):

    -3.7237   1.1387   3.3857   3.8286   7.6665   8.7646  12.4671  13.6373
    16.1201  17.5649  18.1931  19.7396  20.4246  21.2649  22.1728  23.8938

     occupation numbers 
     1.0000   1.0000   1.0000   1.0000   0.0000   0.0000   0.0000   0.0000
     0.0000   0.0000   0.0000   0.0000   0.0000   0.0000   0.0000   0.0000

          k = 0.7500-0.2500 0.9167 (   255 PWs)   bands (ev):

    -3.1019   0.2875   2.7784   3.6022   8.0058   9.3094  12.1581  14.0139
    16.6755  17.0750  19.0218  19.3931  20.6149  21.3872  23.5593  23.7950

     occupation numbers 
     1.0000   1.0000   1.0000   1.0000   0.0000   0.0000   0.0000   0.0000
     0.0000   0.0000   0.0000   0.0000   0.0000   0.0000   0.0000   0.0000

          k = 0.6667-0.1667 0.8333 (   256 PWs)   bands (ev):

    -2.4894  -0.4509   2.2388   3.6109   8.1592  10.6244  11.8556  13.9414
    14.8761  17.3881  18.7193  20.1224  21.2409  22.7919  24.2469  25.0667

     occupation numbers 
     1.0000   1.0000   1.0000   1.0000   0.0000   0.0000   0.0000   0.0000
     0.0000   0.0000   0.0000   0.0000   0.0000   0.0000   0.0000   0.0000

          k = 0.5833-0.0833 0.7500 (   257 PWs)   bands (ev):

    -2.4115  -0.5288   1.9373   3.8166   8.4262  11.4085  12.4250  13.1276
    13.8377  15.8213  19.9630  20.4410  22.3826  22.7636  23.7793  23.9795

     occupation numbers 
     1.0000   1.0000   1.0000   1.0000   0.0000   0.0000   0.0000   0.0000
     0.0000   0.0000   0.0000   0.0000   0.0000   0.0000   0.0000   0.0000

          k = 0.5000 0.0000 0.6667 (   260 PWs)   bands (ev):

    -2.9750   0.0784   2.0243   4.1712   8.8382  10.9943  11.8706  13.2417
    14.3558  14.6710  19.9714  20.5082  21.4288  22.1165  23.7229  24.5481

     occupation numbers 
     1.0000   1.0000   1.0000   1.0000   0.0000   0.0000   0.0000   0.0000
     0.0000   0.0000   0.0000   0.0000   0.0000   0.0000   0.0000   0.0000

          k = 0.8333-0.1667 1.0000 (   257 PWs)   bands (ev):

    -2.6941  -0.1905   3.0934   3.2945   7.4888   8.0032  13.8613  15.2703
    17.0693  17.6231  18.8036  19.4330  20.4904  22.2049  22.2832  23.7250

     occupation numbers 
     1.0000   1.0000   1.0000   1.0000   0.0000   0.0000   0.0000   0.0000
     0.0000   0.0000   0.0000   0.0000   0.0000   0.0000   0.0000   0.0000

          k = 0.7500-0.0833 0.9167 (   256 PWs)   bands (ev):

    -2.0446  -0.8442   2.4352   3.2501   7.7809   8.9338  13.5292  15.0247
    15.7440  17.4732  18.9406  20.6094  21.3299  22.3075  22.9382  24.5853

     occupation numbers 
     1.0000   1.0000   1.0000   1.0000   0.0000   0.0000   0.0000   0.0000
     0.0000   0.0000   0.0000   0.0000   0.0000   0.0000   0.0000   0.0000

          k = 0.6667-0.0000 0.8333 (   260 PWs)   bands (ev):

    -1.8748  -0.9724   1.9130   3.4532   8.0229  10.4897  13.0566  13.4463
    15.2546  16.1670  20.1551  21.3094  21.8846  22.7573  23.0059  23.9387

     occupation numbers 
     1.0000   1.0000   1.0000   1.0000   0.0000   0.0000   0.0000   0.0000
     0.0000   0.0000   0.0000   0.0000   0.0000   0.0000   0.0000   0.0000

          k =-0.1667-1.0000 0.0000 (   254 PWs)   bands (ev):

    -1.4939  -1.4939   3.0571   3.0571   7.5845   7.5845  15.3505  15.3505
    17.1015  17.1015  19.3104  19.3104  20.9544  20.9544  24.3640  24.3640

     occupation numbers 
     1.0000   1.0000   1.0000   1.0000   0.0000   0.0000   0.0000   0.0000
     0.0000   0.0000   0.0000   0.0000   0.0000   0.0000   0.0000   0.0000

          k = 0.6667-0.3333 1.0000 (   260 PWs)   bands (ev):

    -3.4303   0.6645   2.6284   3.9453   9.1633  10.0114  10.6174  13.4836
    15.4690  16.3278  19.4549  19.7012  20.2618  21.4283  23.0474  24.4155

     occupation numbers 
     1.0000   1.0000   1.0000   1.0000   0.0000   0.0000   0.0000   0.0000
     0.0000   0.0000   0.0000   0.0000   0.0000   0.0000   0.0000   0.0000

          k = 0.5833-0.2500 0.9167 (   257 PWs)   bands (ev):

    -2.7844  -0.1222   2.2744   3.5945   9.5351  10.0977  11.1176  13.9233
    14.5043  16.4471  19.3559  20.2327  21.5861  21.7875  23.6207  25.0727

     occupation numbers 
     1.0000   1.0000   1.0000   1.0000   0.0000   0.0000   0.0000   0.0000
     0.0000   0.0000   0.0000   0.0000   0.0000   0.0000   0.0000   0.0000

          k = 0.5000-0.1667 0.8333 (   258 PWs)   bands (ev):

    -2.4068  -0.5724   2.1818   3.4591   9.6438   9.9097  12.4660  12.9121
    13.9883  17.6057  18.4235  19.8278  22.7673  23.3660  23.5648  24.4424

     occupation numbers 
     1.0000   1.0000   1.0000   1.0000   0.0000   0.0000   0.0000   0.0000
     0.0000   0.0000   0.0000   0.0000   0.0000   0.0000   0.0000   0.0000

          k = 0.6667-0.1667 1.0000 (   249 PWs)   bands (ev):

    -2.4638  -0.3322   2.4221   3.0582   8.9869   9.3869  11.7705  14.7319
    15.3085  17.2457  19.3276  20.6860  21.1872  21.8160  23.1535  24.6031

     occupation numbers 
     1.0000   1.0000   1.0000   1.0000   0.0000   0.0000   0.0000   0.0000
     0.0000   0.0000   0.0000   0.0000   0.0000   0.0000   0.0000   0.0000

          k = 0.5833-0.0833 0.9167 (   258 PWs)   bands (ev):

    -1.9259  -0.8561   2.0890   2.8974   9.3259  10.5995  11.4900  12.8833
    15.6896  17.6298  18.8298  20.7683  21.7579  23.5241  23.6983  24.6015

     occupation numbers 
     1.0000   1.0000   1.0000   1.0000   0.0000   0.0000   0.0000   0.0000
     0.0000   0.0000   0.0000   0.0000   0.0000   0.0000   0.0000   0.0000

          k = 0.5000-0.0000 0.8333 (   259 PWs)   bands (ev):

    -2.1650  -0.6232   1.9589   3.1316   9.6357  10.8065  11.3643  12.6232
    15.2598  16.7040  19.7820  21.0085  21.3161  22.8364  23.8232  25.3640

     occupation numbers 
     1.0000   1.0000   1.0000   1.0000   0.0000   0.0000   0.0000   0.0000
     0.0000   0.0000   0.0000   0.0000   0.0000   0.0000   0.0000   0.0000

          k =-0.3333-1.0000 0.0000 (   258 PWs)   bands (ev):

    -1.4070  -1.4070   2.5447   2.5447   9.0429   9.0429  13.1602  13.1602
    17.0643  17.0643  19.4555  19.4555  22.9621  22.9621  23.7670  23.7670

     occupation numbers 
     1.0000   1.0000   1.0000   1.0000   0.0000   0.0000   0.0000   0.0000
     0.0000   0.0000   0.0000   0.0000   0.0000   0.0000   0.0000   0.0000

          k =-0.5000-1.0000 0.0000 (   264 PWs)   bands (ev):

    -1.3629  -1.3629   2.3248   2.3248  10.5670  10.5670  11.3851  11.3851
    17.0656  17.0656  19.5308  19.5308  22.8794  22.8794  24.9378  24.9378

     occupation numbers 
     1.0000   1.0000   1.0000   1.0000   0.0000   0.0000   0.0000   0.0000
     0.0000   0.0000   0.0000   0.0000   0.0000   0.0000   0.0000   0.0000

     highest occupied, lowest unoccupied level (ev):     6.3137    6.8198

     Writing output data file Si_nscf_yambo_kx12.save

     init_run     :      0.04s CPU      0.04s WALL (       1 calls)
     electrons    :     16.47s CPU     16.62s WALL (       1 calls)

     Called by init_run:
     wfcinit      :      0.00s CPU      0.00s WALL (       1 calls)
     potinit      :      0.00s CPU      0.00s WALL (       1 calls)

     Called by electrons:
     c_bands      :     16.47s CPU     16.61s WALL (       1 calls)
     v_of_rho     :      0.00s CPU      0.00s WALL (       1 calls)
     v_h          :      0.00s CPU      0.00s WALL (       1 calls)
     v_xc         :      0.00s CPU      0.00s WALL (       1 calls)

     Called by c_bands:
     init_us_2    :      0.01s CPU      0.01s WALL (      72 calls)
     cegterg      :     15.79s CPU     15.84s WALL (     150 calls)

     Called by sum_band:

     Called by *egterg:
     h_psi        :     10.80s CPU     10.85s WALL (    2504 calls)
     g_psi        :      0.08s CPU      0.07s WALL (    2282 calls)
     cdiaghg      :      3.08s CPU      3.09s WALL (    2354 calls)
     cegterg:over :      1.19s CPU      1.21s WALL (    2282 calls)
     cegterg:upda :      0.66s CPU      0.64s WALL (    2282 calls)
     cegterg:last :      0.47s CPU      0.47s WALL (     437 calls)

     Called by h_psi:
     h_psi:vloc   :     10.55s CPU     10.57s WALL (    2504 calls)
     h_psi:vnl    :      0.23s CPU      0.26s WALL (    2504 calls)
     add_vuspsi   :      0.10s CPU      0.12s WALL (    2504 calls)

     General routines
     calbec       :      0.12s CPU      0.14s WALL (    2504 calls)
     fft          :      0.00s CPU      0.00s WALL (       3 calls)
     fftw         :     10.11s CPU     10.14s WALL (   43038 calls)
     davcio       :      0.00s CPU      0.01s WALL (     144 calls)

     Parallel routines
     fft_scatter  :      0.28s CPU      0.26s WALL (   43041 calls)

     PWSCF        :    16.98s CPU        17.16s WALL


   This run was terminated on:  21: 2:35  28Oct2016            

=------------------------------------------------------------------------------=
   JOB DONE.
=------------------------------------------------------------------------------=
