
     Program PWSCF v.5.1 (svn rev. 11219) starts on 28Oct2016 at 20:58:27 

     This program is part of the open-source Quantum ESPRESSO suite
     for quantum simulation of materials; please cite
         "P. Giannozzi et al., J. Phys.:Condens. Matter 21 395502 (2009);
          URL http://www.quantum-espresso.org", 
     in publications or presentations arising from this work. More details at
     http://www.quantum-espresso.org/quote

     Parallel version (MPI), running on     1 processors
     Waiting for input...
     Reading input from standard input

     Current dimensions of program PWSCF are:
     Max number of different atomic species (ntypx) = 10
     Max number of k-points (npk) =  40000
     Max angular momentum in pseudopotentials (lmaxx) =  3

     Subspace diagonalization in iterative solution of the eigenvalue problem:
     a serial algorithm will be used


     G-vector sticks info
     --------------------
     sticks:   dense  smooth     PW     G-vecs:    dense   smooth      PW
     Sum         211     211     85                 2085     2085     459



     bravais-lattice index     =            2
     lattice parameter (alat)  =      10.1830  a.u.
     unit-cell volume          =     263.9777 (a.u.)^3
     number of atoms/cell      =            2
     number of atomic types    =            1
     number of electrons       =         8.00
     number of Kohn-Sham states=            8
     kinetic-energy cutoff     =      15.0000  Ry
     charge density cutoff     =      60.0000  Ry
     convergence threshold     =      1.0E-12
     mixing beta               =       0.7000
     number of iterations used =            8  plain     mixing
     Exchange-correlation      =  SLA  PZ   NOGX NOGC ( 1  1  0  0 0 0)

     celldm(1)=  10.183000  celldm(2)=   0.000000  celldm(3)=   0.000000
     celldm(4)=   0.000000  celldm(5)=   0.000000  celldm(6)=   0.000000

     crystal axes: (cart. coord. in units of alat)
               a(1) = (  -0.500000   0.000000   0.500000 )  
               a(2) = (   0.000000   0.500000   0.500000 )  
               a(3) = (  -0.500000   0.500000   0.000000 )  

     reciprocal axes: (cart. coord. in units 2 pi/alat)
               b(1) = ( -1.000000 -1.000000  1.000000 )  
               b(2) = (  1.000000  1.000000  1.000000 )  
               b(3) = ( -1.000000  1.000000 -1.000000 )  


     PseudoPot. # 1 for Si read from file:
     ./Si.vbc.UPF
     MD5 check sum: 7974b67c806a44bbea7c2da40a3c413a
     Pseudo is Norm-conserving, Zval =  4.0
     Generated by new atomic code, or converted to UPF format
     Using radial grid of  431 points,  2 beta functions with: 
                l(1) =   0
                l(2) =   1

     atomic species   valence    mass     pseudopotential
        Si             4.00    28.08600     Si( 1.00)

     24 Sym. Ops. (no inversion) found
          (note: 24 additional sym.ops. were found but ignored
           their fractional translations are incommensurate with FFT grid)

                                    s                        frac. trans.

      isym =  1     identity                                     

 cryst.   s( 1) = (     1          0          0      )
                  (     0          1          0      )
                  (     0          0          1      )

 cart.    s( 1) = (  1.0000000  0.0000000  0.0000000 )
                  (  0.0000000  1.0000000  0.0000000 )
                  (  0.0000000  0.0000000  1.0000000 )


      isym =  2     180 deg rotation - cart. axis [0,0,1]        

 cryst.   s( 2) = (     0          1         -1      )
                  (     1          0         -1      )
                  (     0          0         -1      )

 cart.    s( 2) = ( -1.0000000  0.0000000  0.0000000 )
                  (  0.0000000 -1.0000000  0.0000000 )
                  (  0.0000000  0.0000000  1.0000000 )


      isym =  3     180 deg rotation - cart. axis [0,1,0]        

 cryst.   s( 3) = (    -1          0          0      )
                  (    -1          0          1      )
                  (    -1          1          0      )

 cart.    s( 3) = ( -1.0000000  0.0000000  0.0000000 )
                  (  0.0000000  1.0000000  0.0000000 )
                  (  0.0000000  0.0000000 -1.0000000 )


      isym =  4     180 deg rotation - cart. axis [1,0,0]        

 cryst.   s( 4) = (     0         -1          1      )
                  (     0         -1          0      )
                  (     1         -1          0      )

 cart.    s( 4) = (  1.0000000  0.0000000  0.0000000 )
                  (  0.0000000 -1.0000000  0.0000000 )
                  (  0.0000000  0.0000000 -1.0000000 )


      isym =  5     120 deg rotation - cart. axis [-1,-1,-1]     

 cryst.   s( 5) = (    -1          0          1      )
                  (    -1          1          0      )
                  (    -1          0          0      )

 cart.    s( 5) = (  0.0000000  1.0000000  0.0000000 )
                  (  0.0000000  0.0000000  1.0000000 )
                  (  1.0000000  0.0000000  0.0000000 )


      isym =  6     120 deg rotation - cart. axis [-1,1,1]       

 cryst.   s( 6) = (     0          1          0      )
                  (     0          0          1      )
                  (     1          0          0      )

 cart.    s( 6) = (  0.0000000 -1.0000000  0.0000000 )
                  (  0.0000000  0.0000000  1.0000000 )
                  ( -1.0000000  0.0000000  0.0000000 )


      isym =  7     120 deg rotation - cart. axis [1,1,-1]       

 cryst.   s( 7) = (     1          0         -1      )
                  (     0          0         -1      )
                  (     0          1         -1      )

 cart.    s( 7) = (  0.0000000  1.0000000  0.0000000 )
                  (  0.0000000  0.0000000 -1.0000000 )
                  ( -1.0000000  0.0000000  0.0000000 )


      isym =  8     120 deg rotation - cart. axis [1,-1,1]       

 cryst.   s( 8) = (     0         -1          0      )
                  (     1         -1          0      )
                  (     0         -1          1      )

 cart.    s( 8) = (  0.0000000 -1.0000000  0.0000000 )
                  (  0.0000000  0.0000000 -1.0000000 )
                  (  1.0000000  0.0000000  0.0000000 )


      isym =  9     120 deg rotation - cart. axis [1,1,1]        

 cryst.   s( 9) = (     0          0         -1      )
                  (     0          1         -1      )
                  (     1          0         -1      )

 cart.    s( 9) = (  0.0000000  0.0000000  1.0000000 )
                  (  1.0000000  0.0000000  0.0000000 )
                  (  0.0000000  1.0000000  0.0000000 )


      isym = 10     120 deg rotation - cart. axis [-1,1,-1]      

 cryst.   s(10) = (    -1          1          0      )
                  (    -1          0          0      )
                  (    -1          0          1      )

 cart.    s(10) = (  0.0000000  0.0000000  1.0000000 )
                  ( -1.0000000  0.0000000  0.0000000 )
                  (  0.0000000 -1.0000000  0.0000000 )


      isym = 11     120 deg rotation - cart. axis [1,-1,-1]      

 cryst.   s(11) = (     0          0          1      )
                  (     1          0          0      )
                  (     0          1          0      )

 cart.    s(11) = (  0.0000000  0.0000000 -1.0000000 )
                  ( -1.0000000  0.0000000  0.0000000 )
                  (  0.0000000  1.0000000  0.0000000 )


      isym = 12     120 deg rotation - cart. axis [-1,-1,1]      

 cryst.   s(12) = (     1         -1          0      )
                  (     0         -1          1      )
                  (     0         -1          0      )

 cart.    s(12) = (  0.0000000  0.0000000 -1.0000000 )
                  (  1.0000000  0.0000000  0.0000000 )
                  (  0.0000000 -1.0000000  0.0000000 )


      isym = 13     inv. 180 deg rotation - cart. axis [1,1,0]   

 cryst.   s(13) = (     0          1          0      )
                  (     1          0          0      )
                  (     0          0          1      )

 cart.    s(13) = (  0.0000000 -1.0000000  0.0000000 )
                  ( -1.0000000  0.0000000  0.0000000 )
                  (  0.0000000  0.0000000  1.0000000 )


      isym = 14     inv. 180 deg rotation - cart. axis [1,-1,0]  

 cryst.   s(14) = (     1          0         -1      )
                  (     0          1         -1      )
                  (     0          0         -1      )

 cart.    s(14) = (  0.0000000  1.0000000  0.0000000 )
                  (  1.0000000  0.0000000  0.0000000 )
                  (  0.0000000  0.0000000  1.0000000 )


      isym = 15     inv.  90 deg rotation - cart. axis [0,0,-1]  

 cryst.   s(15) = (     0         -1          0      )
                  (     0         -1          1      )
                  (     1         -1          0      )

 cart.    s(15) = (  0.0000000 -1.0000000  0.0000000 )
                  (  1.0000000  0.0000000  0.0000000 )
                  (  0.0000000  0.0000000 -1.0000000 )


      isym = 16     inv.  90 deg rotation - cart. axis [0,0,1]   

 cryst.   s(16) = (    -1          0          1      )
                  (    -1          0          0      )
                  (    -1          1          0      )

 cart.    s(16) = (  0.0000000  1.0000000  0.0000000 )
                  ( -1.0000000  0.0000000  0.0000000 )
                  (  0.0000000  0.0000000 -1.0000000 )


      isym = 17     inv. 180 deg rotation - cart. axis [1,0,1]   

 cryst.   s(17) = (     1          0          0      )
                  (     0          0          1      )
                  (     0          1          0      )

 cart.    s(17) = (  0.0000000  0.0000000 -1.0000000 )
                  (  0.0000000  1.0000000  0.0000000 )
                  ( -1.0000000  0.0000000  0.0000000 )


      isym = 18     inv. 180 deg rotation - cart. axis [-1,0,1]  

 cryst.   s(18) = (    -1          0          0      )
                  (    -1          1          0      )
                  (    -1          0          1      )

 cart.    s(18) = (  0.0000000  0.0000000  1.0000000 )
                  (  0.0000000  1.0000000  0.0000000 )
                  (  1.0000000  0.0000000  0.0000000 )


      isym = 19     inv.  90 deg rotation - cart. axis [0,1,0]   

 cryst.   s(19) = (     0         -1          1      )
                  (     1         -1          0      )
                  (     0         -1          0      )

 cart.    s(19) = (  0.0000000  0.0000000 -1.0000000 )
                  (  0.0000000 -1.0000000  0.0000000 )
                  (  1.0000000  0.0000000  0.0000000 )


      isym = 20     inv.  90 deg rotation - cart. axis [0,-1,0]  

 cryst.   s(20) = (     0          1         -1      )
                  (     0          0         -1      )
                  (     1          0         -1      )

 cart.    s(20) = (  0.0000000  0.0000000  1.0000000 )
                  (  0.0000000 -1.0000000  0.0000000 )
                  ( -1.0000000  0.0000000  0.0000000 )


      isym = 21     inv. 180 deg rotation - cart. axis [0,1,1]   

 cryst.   s(21) = (     1         -1          0      )
                  (     0         -1          0      )
                  (     0         -1          1      )

 cart.    s(21) = (  1.0000000  0.0000000  0.0000000 )
                  (  0.0000000  0.0000000 -1.0000000 )
                  (  0.0000000 -1.0000000  0.0000000 )


      isym = 22     inv. 180 deg rotation - cart. axis [0,1,-1]  

 cryst.   s(22) = (     0          0          1      )
                  (     0          1          0      )
                  (     1          0          0      )

 cart.    s(22) = (  1.0000000  0.0000000  0.0000000 )
                  (  0.0000000  0.0000000  1.0000000 )
                  (  0.0000000  1.0000000  0.0000000 )


      isym = 23     inv.  90 deg rotation - cart. axis [-1,0,0]  

 cryst.   s(23) = (     0          0         -1      )
                  (     1          0         -1      )
                  (     0          1         -1      )

 cart.    s(23) = ( -1.0000000  0.0000000  0.0000000 )
                  (  0.0000000  0.0000000 -1.0000000 )
                  (  0.0000000  1.0000000  0.0000000 )


      isym = 24     inv.  90 deg rotation - cart. axis [1,0,0]   

 cryst.   s(24) = (    -1          1          0      )
                  (    -1          0          1      )
                  (    -1          0          0      )

 cart.    s(24) = ( -1.0000000  0.0000000  0.0000000 )
                  (  0.0000000  0.0000000  1.0000000 )
                  (  0.0000000 -1.0000000  0.0000000 )


     point group T_d (-43m) 
     there are  5 classes
     the character table:

       E     8C3   3C2   6S4   6s_d 
A_1    1.00  1.00  1.00  1.00  1.00
A_2    1.00  1.00  1.00 -1.00 -1.00
E      2.00 -1.00  2.00  0.00  0.00
T_1    3.00  0.00 -1.00  1.00 -1.00
T_2    3.00  0.00 -1.00 -1.00  1.00

     the symmetry operations in each class:
     E        1
     3C2      2    3    4
     8C3      5    7    8    6   12    9   10   11
     6s_d    13   14   17   18   21   22
     6S4     15   16   20   19   23   24

   Cartesian axes

     site n.     atom                  positions (alat units)
         1           Si  tau(   1) = (   0.0000000   0.0000000   0.0000000  )
         2           Si  tau(   2) = (   0.2500000   0.2500000   0.2500000  )

   Crystallographic axes

     site n.     atom                  positions (cryst. coord.)
         1           Si  tau(   1) = (  0.0000000  0.0000000  0.0000000  )
         2           Si  tau(   2) = ( -0.2500000  0.7500000 -0.2500000  )

     number of k points=    72
                       cart. coord. in units 2pi/alat
        k(    1) = (   0.0000000   0.0000000   0.0000000), wk =   0.0011574
        k(    2) = (  -0.0833333   0.0833333  -0.0833333), wk =   0.0092593
        k(    3) = (  -0.1666667   0.1666667  -0.1666667), wk =   0.0092593
        k(    4) = (  -0.2500000   0.2500000  -0.2500000), wk =   0.0092593
        k(    5) = (  -0.3333333   0.3333333  -0.3333333), wk =   0.0092593
        k(    6) = (  -0.4166667   0.4166667  -0.4166667), wk =   0.0092593
        k(    7) = (   0.5000000  -0.5000000   0.5000000), wk =   0.0046296
        k(    8) = (   0.0000000   0.1666667   0.0000000), wk =   0.0069444
        k(    9) = (  -0.0833333   0.2500000  -0.0833333), wk =   0.0277778
        k(   10) = (  -0.1666667   0.3333333  -0.1666667), wk =   0.0277778
        k(   11) = (  -0.2500000   0.4166667  -0.2500000), wk =   0.0277778
        k(   12) = (  -0.3333333   0.5000000  -0.3333333), wk =   0.0277778
        k(   13) = (   0.5833333  -0.4166667   0.5833333), wk =   0.0277778
        k(   14) = (   0.5000000  -0.3333333   0.5000000), wk =   0.0277778
        k(   15) = (   0.4166667  -0.2500000   0.4166667), wk =   0.0277778
        k(   16) = (   0.3333333  -0.1666667   0.3333333), wk =   0.0277778
        k(   17) = (   0.2500000  -0.0833333   0.2500000), wk =   0.0277778
        k(   18) = (   0.1666667  -0.0000000   0.1666667), wk =   0.0138889
        k(   19) = (   0.0000000   0.3333333   0.0000000), wk =   0.0069444
        k(   20) = (  -0.0833333   0.4166667  -0.0833333), wk =   0.0277778
        k(   21) = (  -0.1666667   0.5000000  -0.1666667), wk =   0.0277778
        k(   22) = (  -0.2500000   0.5833333  -0.2500000), wk =   0.0277778
        k(   23) = (   0.6666667  -0.3333333   0.6666667), wk =   0.0277778
        k(   24) = (   0.5833333  -0.2500000   0.5833333), wk =   0.0277778
        k(   25) = (   0.5000000  -0.1666667   0.5000000), wk =   0.0277778
        k(   26) = (   0.4166667  -0.0833333   0.4166667), wk =   0.0277778
        k(   27) = (   0.3333333  -0.0000000   0.3333333), wk =   0.0138889
        k(   28) = (   0.0000000   0.5000000   0.0000000), wk =   0.0069444
        k(   29) = (  -0.0833333   0.5833333  -0.0833333), wk =   0.0277778
        k(   30) = (  -0.1666667   0.6666667  -0.1666667), wk =   0.0277778
        k(   31) = (   0.7500000  -0.2500000   0.7500000), wk =   0.0277778
        k(   32) = (   0.6666667  -0.1666667   0.6666667), wk =   0.0277778
        k(   33) = (   0.5833333  -0.0833333   0.5833333), wk =   0.0277778
        k(   34) = (   0.5000000   0.0000000   0.5000000), wk =   0.0138889
        k(   35) = (   0.0000000   0.6666667   0.0000000), wk =   0.0069444
        k(   36) = (  -0.0833333   0.7500000  -0.0833333), wk =   0.0277778
        k(   37) = (   0.8333333  -0.1666667   0.8333333), wk =   0.0277778
        k(   38) = (   0.7500000  -0.0833333   0.7500000), wk =   0.0277778
        k(   39) = (   0.6666667  -0.0000000   0.6666667), wk =   0.0138889
        k(   40) = (   0.0000000   0.8333333   0.0000000), wk =   0.0069444
        k(   41) = (   0.9166667  -0.0833333   0.9166667), wk =   0.0277778
        k(   42) = (   0.8333333  -0.0000000   0.8333333), wk =   0.0138889
        k(   43) = (   0.0000000  -1.0000000   0.0000000), wk =   0.0034722
        k(   44) = (  -0.1666667   0.3333333   0.0000000), wk =   0.0277778
        k(   45) = (  -0.2500000   0.4166667  -0.0833333), wk =   0.0555556
        k(   46) = (  -0.3333333   0.5000000  -0.1666667), wk =   0.0555556
        k(   47) = (   0.5833333  -0.4166667   0.7500000), wk =   0.0555556
        k(   48) = (   0.5000000  -0.3333333   0.6666667), wk =   0.0277778
        k(   49) = (  -0.1666667   0.5000000   0.0000000), wk =   0.0277778
        k(   50) = (  -0.2500000   0.5833333  -0.0833333), wk =   0.0555556
        k(   51) = (   0.6666667  -0.3333333   0.8333333), wk =   0.0555556
        k(   52) = (   0.5833333  -0.2500000   0.7500000), wk =   0.0555556
        k(   53) = (   0.5000000  -0.1666667   0.6666667), wk =   0.0555556
        k(   54) = (   0.4166667  -0.0833333   0.5833333), wk =   0.0555556
        k(   55) = (   0.3333333  -0.0000000   0.5000000), wk =   0.0277778
        k(   56) = (  -0.1666667   0.6666667   0.0000000), wk =   0.0277778
        k(   57) = (   0.7500000  -0.2500000   0.9166667), wk =   0.0555556
        k(   58) = (   0.6666667  -0.1666667   0.8333333), wk =   0.0555556
        k(   59) = (   0.5833333  -0.0833333   0.7500000), wk =   0.0555556
        k(   60) = (   0.5000000   0.0000000   0.6666667), wk =   0.0277778
        k(   61) = (   0.8333333  -0.1666667   1.0000000), wk =   0.0277778
        k(   62) = (   0.7500000  -0.0833333   0.9166667), wk =   0.0555556
        k(   63) = (   0.6666667  -0.0000000   0.8333333), wk =   0.0277778
        k(   64) = (  -0.1666667  -1.0000000   0.0000000), wk =   0.0138889
        k(   65) = (   0.6666667  -0.3333333   1.0000000), wk =   0.0277778
        k(   66) = (   0.5833333  -0.2500000   0.9166667), wk =   0.0555556
        k(   67) = (   0.5000000  -0.1666667   0.8333333), wk =   0.0277778
        k(   68) = (   0.6666667  -0.1666667   1.0000000), wk =   0.0277778
        k(   69) = (   0.5833333  -0.0833333   0.9166667), wk =   0.0555556
        k(   70) = (   0.5000000  -0.0000000   0.8333333), wk =   0.0277778
        k(   71) = (  -0.3333333  -1.0000000   0.0000000), wk =   0.0138889
        k(   72) = (  -0.5000000  -1.0000000   0.0000000), wk =   0.0069444

                       cryst. coord.
        k(    1) = (   0.0000000   0.0000000   0.0000000), wk =   0.0011574
        k(    2) = (   0.0000000   0.0000000   0.0833333), wk =   0.0092593
        k(    3) = (   0.0000000   0.0000000   0.1666667), wk =   0.0092593
        k(    4) = (   0.0000000   0.0000000   0.2500000), wk =   0.0092593
        k(    5) = (   0.0000000   0.0000000   0.3333333), wk =   0.0092593
        k(    6) = (   0.0000000   0.0000000   0.4166667), wk =   0.0092593
        k(    7) = (   0.0000000   0.0000000  -0.5000000), wk =   0.0046296
        k(    8) = (   0.0000000   0.0833333   0.0833333), wk =   0.0069444
        k(    9) = (   0.0000000   0.0833333   0.1666667), wk =   0.0277778
        k(   10) = (   0.0000000   0.0833333   0.2500000), wk =   0.0277778
        k(   11) = (   0.0000000   0.0833333   0.3333333), wk =   0.0277778
        k(   12) = (   0.0000000   0.0833333   0.4166667), wk =   0.0277778
        k(   13) = (   0.0000000   0.0833333  -0.5000000), wk =   0.0277778
        k(   14) = (   0.0000000   0.0833333  -0.4166667), wk =   0.0277778
        k(   15) = (   0.0000000   0.0833333  -0.3333333), wk =   0.0277778
        k(   16) = (   0.0000000   0.0833333  -0.2500000), wk =   0.0277778
        k(   17) = (   0.0000000   0.0833333  -0.1666667), wk =   0.0277778
        k(   18) = (   0.0000000   0.0833333  -0.0833333), wk =   0.0138889
        k(   19) = (   0.0000000   0.1666667   0.1666667), wk =   0.0069444
        k(   20) = (   0.0000000   0.1666667   0.2500000), wk =   0.0277778
        k(   21) = (   0.0000000   0.1666667   0.3333333), wk =   0.0277778
        k(   22) = (   0.0000000   0.1666667   0.4166667), wk =   0.0277778
        k(   23) = (   0.0000000   0.1666667  -0.5000000), wk =   0.0277778
        k(   24) = (   0.0000000   0.1666667  -0.4166667), wk =   0.0277778
        k(   25) = (   0.0000000   0.1666667  -0.3333333), wk =   0.0277778
        k(   26) = (   0.0000000   0.1666667  -0.2500000), wk =   0.0277778
        k(   27) = (   0.0000000   0.1666667  -0.1666667), wk =   0.0138889
        k(   28) = (   0.0000000   0.2500000   0.2500000), wk =   0.0069444
        k(   29) = (   0.0000000   0.2500000   0.3333333), wk =   0.0277778
        k(   30) = (   0.0000000   0.2500000   0.4166667), wk =   0.0277778
        k(   31) = (   0.0000000   0.2500000  -0.5000000), wk =   0.0277778
        k(   32) = (   0.0000000   0.2500000  -0.4166667), wk =   0.0277778
        k(   33) = (   0.0000000   0.2500000  -0.3333333), wk =   0.0277778
        k(   34) = (   0.0000000   0.2500000  -0.2500000), wk =   0.0138889
        k(   35) = (   0.0000000   0.3333333   0.3333333), wk =   0.0069444
        k(   36) = (   0.0000000   0.3333333   0.4166667), wk =   0.0277778
        k(   37) = (   0.0000000   0.3333333  -0.5000000), wk =   0.0277778
        k(   38) = (   0.0000000   0.3333333  -0.4166667), wk =   0.0277778
        k(   39) = (   0.0000000   0.3333333  -0.3333333), wk =   0.0138889
        k(   40) = (   0.0000000   0.4166667   0.4166667), wk =   0.0069444
        k(   41) = (   0.0000000   0.4166667  -0.5000000), wk =   0.0277778
        k(   42) = (   0.0000000   0.4166667  -0.4166667), wk =   0.0138889
        k(   43) = (   0.0000000  -0.5000000  -0.5000000), wk =   0.0034722
        k(   44) = (   0.0833333   0.1666667   0.2500000), wk =   0.0277778
        k(   45) = (   0.0833333   0.1666667   0.3333333), wk =   0.0555556
        k(   46) = (   0.0833333   0.1666667   0.4166667), wk =   0.0555556
        k(   47) = (   0.0833333   0.1666667  -0.5000000), wk =   0.0555556
        k(   48) = (   0.0833333   0.1666667  -0.4166667), wk =   0.0277778
        k(   49) = (   0.0833333   0.2500000   0.3333333), wk =   0.0277778
        k(   50) = (   0.0833333   0.2500000   0.4166667), wk =   0.0555556
        k(   51) = (   0.0833333   0.2500000  -0.5000000), wk =   0.0555556
        k(   52) = (   0.0833333   0.2500000  -0.4166667), wk =   0.0555556
        k(   53) = (   0.0833333   0.2500000  -0.3333333), wk =   0.0555556
        k(   54) = (   0.0833333   0.2500000  -0.2500000), wk =   0.0555556
        k(   55) = (   0.0833333   0.2500000  -0.1666667), wk =   0.0277778
        k(   56) = (   0.0833333   0.3333333   0.4166667), wk =   0.0277778
        k(   57) = (   0.0833333   0.3333333  -0.5000000), wk =   0.0555556
        k(   58) = (   0.0833333   0.3333333  -0.4166667), wk =   0.0555556
        k(   59) = (   0.0833333   0.3333333  -0.3333333), wk =   0.0555556
        k(   60) = (   0.0833333   0.3333333  -0.2500000), wk =   0.0277778
        k(   61) = (   0.0833333   0.4166667  -0.5000000), wk =   0.0277778
        k(   62) = (   0.0833333   0.4166667  -0.4166667), wk =   0.0555556
        k(   63) = (   0.0833333   0.4166667  -0.3333333), wk =   0.0277778
        k(   64) = (   0.0833333  -0.5000000  -0.4166667), wk =   0.0138889
        k(   65) = (   0.1666667   0.3333333  -0.5000000), wk =   0.0277778
        k(   66) = (   0.1666667   0.3333333  -0.4166667), wk =   0.0555556
        k(   67) = (   0.1666667   0.3333333  -0.3333333), wk =   0.0277778
        k(   68) = (   0.1666667   0.4166667  -0.4166667), wk =   0.0277778
        k(   69) = (   0.1666667   0.4166667  -0.3333333), wk =   0.0555556
        k(   70) = (   0.1666667   0.4166667  -0.2500000), wk =   0.0277778
        k(   71) = (   0.1666667  -0.5000000  -0.3333333), wk =   0.0138889
        k(   72) = (   0.2500000  -0.5000000  -0.2500000), wk =   0.0069444

     Dense  grid:     2085 G-vectors     FFT dimensions: (  18,  18,  18)

     Largest allocated arrays     est. size (Mb)     dimensions
        Kohn-Sham Wavefunctions         0.03 Mb     (     271,    8)
        NL pseudopotentials             0.03 Mb     (     271,    8)
        Each V/rho on FFT grid          0.09 Mb     (    5832)
        Each G-vector array             0.02 Mb     (    2085)
        G-vector shells                 0.00 Mb     (      54)
     Largest temporary arrays     est. size (Mb)     dimensions
        Auxiliary wavefunctions         0.13 Mb     (     271,   32)
        Each subspace H/S matrix        0.02 Mb     (      32,   32)
        Each <psi_i|beta_j> matrix      0.00 Mb     (       8,    8)
        Arrays for rho mixing           0.71 Mb     (    5832,    8)

     Initial potential from superposition of free atoms

     starting charge    7.99901, renormalised to    8.00000
     Starting wfc are    8 randomized atomic wfcs

     total cpu time spent up to now is        0.4 secs

     per-process dynamical memory:     6.0 Mb

     Self-consistent Calculation

     iteration #  1     ecut=    15.00 Ry     beta=0.70
     Davidson diagonalization with overlap
     ethr =  1.00E-02,  avg # of iterations =  3.7

     Threshold (ethr) on eigenvalues was too large:
     Diagonalizing with lowered threshold

     Davidson diagonalization with overlap
     ethr =  7.84E-04,  avg # of iterations =  1.9

     total cpu time spent up to now is        2.6 secs

     total energy              =     -15.83065259 Ry
     Harris-Foulkes estimate   =     -15.85203834 Ry
     estimated scf accuracy    <       0.06212992 Ry

     iteration #  2     ecut=    15.00 Ry     beta=0.70
     Davidson diagonalization with overlap
     ethr =  7.77E-04,  avg # of iterations =  1.3

     total cpu time spent up to now is        3.4 secs

     total energy              =     -15.83442343 Ry
     Harris-Foulkes estimate   =     -15.83464595 Ry
     estimated scf accuracy    <       0.00180618 Ry

     iteration #  3     ecut=    15.00 Ry     beta=0.70
     Davidson diagonalization with overlap
     ethr =  2.26E-05,  avg # of iterations =  3.2

     total cpu time spent up to now is        4.5 secs

     total energy              =     -15.83451888 Ry
     Harris-Foulkes estimate   =     -15.83452414 Ry
     estimated scf accuracy    <       0.00005166 Ry

     iteration #  4     ecut=    15.00 Ry     beta=0.70
     Davidson diagonalization with overlap
     ethr =  6.46E-07,  avg # of iterations =  2.3

     total cpu time spent up to now is        5.4 secs

     total energy              =     -15.83452318 Ry
     Harris-Foulkes estimate   =     -15.83452318 Ry
     estimated scf accuracy    <       0.00000009 Ry

     iteration #  5     ecut=    15.00 Ry     beta=0.70
     Davidson diagonalization with overlap
     ethr =  1.13E-09,  avg # of iterations =  4.9

     total cpu time spent up to now is        7.0 secs

     total energy              =     -15.83452330 Ry
     Harris-Foulkes estimate   =     -15.83452330 Ry
     estimated scf accuracy    <          4.9E-09 Ry

     iteration #  6     ecut=    15.00 Ry     beta=0.70
     Davidson diagonalization with overlap
     ethr =  6.15E-11,  avg # of iterations =  2.5

     total cpu time spent up to now is        7.9 secs

     total energy              =     -15.83452330 Ry
     Harris-Foulkes estimate   =     -15.83452330 Ry
     estimated scf accuracy    <          1.0E-10 Ry

     iteration #  7     ecut=    15.00 Ry     beta=0.70
     Davidson diagonalization with overlap
     ethr =  1.27E-12,  avg # of iterations =  3.6

     total cpu time spent up to now is        9.0 secs

     total energy              =     -15.83452330 Ry
     Harris-Foulkes estimate   =     -15.83452330 Ry
     estimated scf accuracy    <          1.6E-12 Ry

     iteration #  8     ecut=    15.00 Ry     beta=0.70
     Davidson diagonalization with overlap
     ethr =  1.00E-13,  avg # of iterations =  1.9

     total cpu time spent up to now is        9.9 secs

     End of self-consistent calculation

          k = 0.0000 0.0000 0.0000 (   259 PWs)   bands (ev):

    -5.7589   6.3137   6.3137   6.3137   8.8902   8.8902   8.8902   9.8462

     occupation numbers 
     1.0000   1.0000   1.0000   1.0000   0.0000   0.0000   0.0000   0.0000

          k =-0.0833 0.0833-0.0833 (   271 PWs)   bands (ev):

    -5.6815   5.4513   6.1619   6.1619   8.9526   9.1047   9.1047  10.4710

     occupation numbers 
     1.0000   1.0000   1.0000   1.0000   0.0000   0.0000   0.0000   0.0000

          k =-0.1667 0.1667-0.1667 (   268 PWs)   bands (ev):

    -5.4070   3.9136   5.8453   5.8453   8.7211   9.5516   9.5516  11.8532

     occupation numbers 
     1.0000   1.0000   1.0000   1.0000   0.0000   0.0000   0.0000   0.0000

          k =-0.2500 0.2500-0.2500 (   268 PWs)   bands (ev):

    -4.9570   2.3418   5.5274   5.5274   8.3966   9.8512   9.8512  13.2760

     occupation numbers 
     1.0000   1.0000   1.0000   1.0000   0.0000   0.0000   0.0000   0.0000

          k =-0.3333 0.3333-0.3333 (   256 PWs)   bands (ev):

    -4.3619   0.9098   5.2866   5.2866   8.1457   9.8525   9.8525  14.1109

     occupation numbers 
     1.0000   1.0000   1.0000   1.0000   0.0000   0.0000   0.0000   0.0000

          k =-0.4167 0.4167-0.4167 (   263 PWs)   bands (ev):

    -3.7230  -0.2501   5.1340   5.1340   7.9789   9.7309   9.7309  14.0001

     occupation numbers 
     1.0000   1.0000   1.0000   1.0000   0.0000   0.0000   0.0000   0.0000

          k = 0.5000-0.5000 0.5000 (   266 PWs)   bands (ev):

    -3.3699  -0.7790   5.0819   5.0819   7.9229   9.6678   9.6678  13.9128

     occupation numbers 
     1.0000   1.0000   1.0000   1.0000   0.0000   0.0000   0.0000   0.0000

          k = 0.0000 0.1667 0.0000 (   267 PWs)   bands (ev):

    -5.6452   5.6418   5.8656   5.8656   8.5957   9.4853   9.4853  10.4557

     occupation numbers 
     1.0000   1.0000   1.0000   1.0000   0.0000   0.0000   0.0000   0.0000

          k =-0.0833 0.2500-0.0833 (   267 PWs)   bands (ev):

    -5.4308   4.3861   5.4904   5.6982   8.6174   9.5971  10.0374  11.2949

     occupation numbers 
     1.0000   1.0000   1.0000   1.0000   0.0000   0.0000   0.0000   0.0000

          k =-0.1667 0.3333-0.1667 (   265 PWs)   bands (ev):

    -5.0417   2.8580   5.1700   5.3685   8.7692   9.5849  10.4311  11.7658

     occupation numbers 
     1.0000   1.0000   1.0000   1.0000   0.0000   0.0000   0.0000   0.0000

          k =-0.2500 0.4167-0.2500 (   265 PWs)   bands (ev):

    -4.4923   1.3904   4.9568   5.0066   8.6492   9.6447  10.4442  12.3295

     occupation numbers 
     1.0000   1.0000   1.0000   1.0000   0.0000   0.0000   0.0000   0.0000

          k =-0.3333 0.5000-0.3333 (   263 PWs)   bands (ev):

    -3.8482   0.1321   4.7087   4.8654   8.4945   9.5956  10.2439  13.3737

     occupation numbers 
     1.0000   1.0000   1.0000   1.0000   0.0000   0.0000   0.0000   0.0000

          k = 0.5833-0.4167 0.5833 (   259 PWs)   bands (ev):

    -3.3327  -0.6647   4.4965   4.8994   8.4233   9.5874  10.0415  14.1730

     occupation numbers 
     1.0000   1.0000   1.0000   1.0000   0.0000   0.0000   0.0000   0.0000

          k = 0.5000-0.3333 0.5000 (   258 PWs)   bands (ev):

    -3.4604  -0.4796   4.3967   5.0474   8.4546   9.7058   9.9270  14.2654

     occupation numbers 
     1.0000   1.0000   1.0000   1.0000   0.0000   0.0000   0.0000   0.0000

          k = 0.4167-0.2500 0.4167 (   258 PWs)   bands (ev):

    -4.0658   0.5231   4.4211   5.2955   8.5887   9.8923   9.9264  13.8095

     occupation numbers 
     1.0000   1.0000   1.0000   1.0000   0.0000   0.0000   0.0000   0.0000

          k = 0.3333-0.1667 0.3333 (   262 PWs)   bands (ev):

    -4.6896   1.8678   4.5782   5.6101   8.8134   9.8116  10.0876  12.8794

     occupation numbers 
     1.0000   1.0000   1.0000   1.0000   0.0000   0.0000   0.0000   0.0000

          k = 0.2500-0.0833 0.2500 (   268 PWs)   bands (ev):

    -5.1932   3.3555   4.8830   5.9483   9.0916   9.5062   9.8803  12.1176

     occupation numbers 
     1.0000   1.0000   1.0000   1.0000   0.0000   0.0000   0.0000   0.0000

          k = 0.1667-0.0000 0.1667 (   271 PWs)   bands (ev):

    -5.5280   4.7284   5.4133   6.1903   9.1408   9.2940   9.3069  11.2390

     occupation numbers 
     1.0000   1.0000   1.0000   1.0000   0.0000   0.0000   0.0000   0.0000

          k = 0.0000 0.3333 0.0000 (   266 PWs)   bands (ev):

    -5.2764   4.3131   5.0790   5.0790   7.9855  10.6718  10.7169  10.7169

     occupation numbers 
     1.0000   1.0000   1.0000   1.0000   0.0000   0.0000   0.0000   0.0000

          k =-0.0833 0.4167-0.0833 (   266 PWs)   bands (ev):

    -4.9416   3.1974   4.7335   4.7384   8.0070  10.2524  11.0500  11.2886

     occupation numbers 
     1.0000   1.0000   1.0000   1.0000   0.0000   0.0000   0.0000   0.0000

          k =-0.1667 0.5000-0.1667 (   259 PWs)   bands (ev):

    -4.4420   1.8558   4.2760   4.5177   8.2583  10.4289  10.8837  11.4600

     occupation numbers 
     1.0000   1.0000   1.0000   1.0000   0.0000   0.0000   0.0000   0.0000

          k =-0.2500 0.5833-0.2500 (   259 PWs)   bands (ev):

    -3.8185   0.5880   3.8293   4.4312   8.3079  10.6349  11.2751  11.3974

     occupation numbers 
     1.0000   1.0000   1.0000   1.0000   0.0000   0.0000   0.0000   0.0000

          k = 0.6667-0.3333 0.6667 (   259 PWs)   bands (ev):

    -3.2106  -0.3771   3.4782   4.4851   8.3476  10.4756  10.9938  12.7898

     occupation numbers 
     1.0000   1.0000   1.0000   1.0000   0.0000   0.0000   0.0000   0.0000

          k = 0.5833-0.2500 0.5833 (   255 PWs)   bands (ev):

    -3.0883  -0.5429   3.2566   4.6758   8.5069  10.4191  10.7605  14.3595

     occupation numbers 
     1.0000   1.0000   1.0000   1.0000   0.0000   0.0000   0.0000   0.0000

          k = 0.5000-0.1667 0.5000 (   258 PWs)   bands (ev):

    -3.6121   0.2425   3.1901   4.9798   8.7872  10.4660  10.5891  13.6487

     occupation numbers 
     1.0000   1.0000   1.0000   1.0000   0.0000   0.0000   0.0000   0.0000

          k = 0.4167-0.0833 0.4167 (   261 PWs)   bands (ev):

    -4.2566   1.4218   3.3256   5.3566   9.1450  10.3549  10.5141  12.4877

     occupation numbers 
     1.0000   1.0000   1.0000   1.0000   0.0000   0.0000   0.0000   0.0000

          k = 0.3333-0.0000 0.3333 (   269 PWs)   bands (ev):

    -4.8063   2.5874   3.8189   5.7318   9.4207   9.9011  10.1815  12.0229

     occupation numbers 
     1.0000   1.0000   1.0000   1.0000   0.0000   0.0000   0.0000   0.0000

          k = 0.0000 0.5000 0.0000 (   258 PWs)   bands (ev):

    -4.6628   2.8270   4.3679   4.3679   7.3936   9.4452  12.1591  12.1591

     occupation numbers 
     1.0000   1.0000   1.0000   1.0000   0.0000   0.0000   0.0000   0.0000

          k =-0.0833 0.5833-0.0833 (   257 PWs)   bands (ev):

    -4.2181   1.9026   3.8892   4.1158   7.4821   9.0748  12.4550  12.6491

     occupation numbers 
     1.0000   1.0000   1.0000   1.0000   0.0000   0.0000   0.0000   0.0000

          k =-0.1667 0.6667-0.1667 (   259 PWs)   bands (ev):

    -3.6297   0.8456   3.2397   4.0042   7.7031   9.5553  12.3117  12.6036

     occupation numbers 
     1.0000   1.0000   1.0000   1.0000   0.0000   0.0000   0.0000   0.0000

          k = 0.7500-0.2500 0.7500 (   254 PWs)   bands (ev):

    -2.9840  -0.1067   2.6801   4.0455   7.7948  10.7739  12.1429  12.3230

     occupation numbers 
     1.0000   1.0000   1.0000   1.0000   0.0000   0.0000   0.0000   0.0000

          k = 0.6667-0.1667 0.6667 (   254 PWs)   bands (ev):

    -2.6406  -0.5413   2.3057   4.2306   7.9805  11.8068  12.0175  12.5586

     occupation numbers 
     1.0000   1.0000   1.0000   1.0000   0.0000   0.0000   0.0000   0.0000

          k = 0.5833-0.0833 0.5833 (   256 PWs)   bands (ev):

    -3.0367  -0.0270   2.1747   4.5448   8.3220  11.7077  11.7998  13.5524

     occupation numbers 
     1.0000   1.0000   1.0000   1.0000   0.0000   0.0000   0.0000   0.0000

          k = 0.5000 0.0000 0.5000 (   256 PWs)   bands (ev):

    -3.6771   0.8177   2.4387   4.9489   8.7753  11.1612  11.4877  12.5090

     occupation numbers 
     1.0000   1.0000   1.0000   1.0000   0.0000   0.0000   0.0000   0.0000

          k = 0.0000 0.6667 0.0000 (   250 PWs)   bands (ev):

    -3.8194   1.3200   3.8281   3.8281   6.9792   8.2656  13.6937  13.6937

     occupation numbers 
     1.0000   1.0000   1.0000   1.0000   0.0000   0.0000   0.0000   0.0000

          k =-0.0833 0.7500-0.0833 (   255 PWs)   bands (ev):

    -3.2792   0.5234   3.3191   3.6809   7.1472   8.1324  14.0150  14.0703

     occupation numbers 
     1.0000   1.0000   1.0000   1.0000   0.0000   0.0000   0.0000   0.0000

          k = 0.8333-0.1667 0.8333 (   251 PWs)   bands (ev):

    -2.6278  -0.2607   2.5615   3.6877   7.3222   9.0143  13.8858  13.8933

     occupation numbers 
     1.0000   1.0000   1.0000   1.0000   0.0000   0.0000   0.0000   0.0000

          k = 0.7500-0.0833 0.7500 (   257 PWs)   bands (ev):

    -2.1426  -0.7712   1.9582   3.8445   7.4994  10.4837  13.5279  13.7157

     occupation numbers 
     1.0000   1.0000   1.0000   1.0000   0.0000   0.0000   0.0000   0.0000

          k = 0.6667-0.0000 0.6667 (   256 PWs)   bands (ev):

    -2.4229  -0.4789   1.7481   4.1417   7.8457  12.1427  12.8894  13.4840

     occupation numbers 
     1.0000   1.0000   1.0000   1.0000   0.0000   0.0000   0.0000   0.0000

          k = 0.0000 0.8333 0.0000 (   254 PWs)   bands (ev):

    -2.7727  -0.1531   3.4925   3.4925   6.8198   7.4274  15.2754  15.2754

     occupation numbers 
     1.0000   1.0000   1.0000   1.0000   0.0000   0.0000   0.0000   0.0000

          k = 0.9167-0.0833 0.9167 (   253 PWs)   bands (ev):

    -2.1401  -0.8536   3.0411   3.4591   7.0166   7.6026  15.5262  15.6096

     occupation numbers 
     1.0000   1.0000   1.0000   1.0000   0.0000   0.0000   0.0000   0.0000

          k = 0.8333-0.0000 0.8333 (   256 PWs)   bands (ev):

    -1.6633  -1.2746   2.3377   3.5796   7.1789   8.8328  14.9640  15.4574

     occupation numbers 
     1.0000   1.0000   1.0000   1.0000   0.0000   0.0000   0.0000   0.0000

          k = 0.0000-1.0000 0.0000 (   254 PWs)   bands (ev):

    -1.5346  -1.5346   3.3806   3.3806   6.9509   6.9509  16.5388  16.5388

     occupation numbers 
     1.0000   1.0000   1.0000   1.0000   0.0000   0.0000   0.0000   0.0000

          k =-0.1667 0.3333 0.0000 (   263 PWs)   bands (ev):

    -5.1574   3.5945   4.6226   5.5910   8.6416   9.9463  10.5191  11.2691

     occupation numbers 
     1.0000   1.0000   1.0000   1.0000   0.0000   0.0000   0.0000   0.0000

          k =-0.2500 0.4167-0.0833 (   264 PWs)   bands (ev):

    -4.7113   2.3258   4.0839   5.3068   8.9361   9.9001  10.9287  11.2375

     occupation numbers 
     1.0000   1.0000   1.0000   1.0000   0.0000   0.0000   0.0000   0.0000

          k =-0.3333 0.5000-0.1667 (   262 PWs)   bands (ev):

    -4.1215   0.9904   3.8172   4.9681   8.9986   9.7350  10.9904  11.9008

     occupation numbers 
     1.0000   1.0000   1.0000   1.0000   0.0000   0.0000   0.0000   0.0000

          k = 0.5833-0.4167 0.7500 (   256 PWs)   bands (ev):

    -3.4765  -0.1283   3.6974   4.7143   8.9630   9.5178  10.9122  13.1354

     occupation numbers 
     1.0000   1.0000   1.0000   1.0000   0.0000   0.0000   0.0000   0.0000

          k = 0.5000-0.3333 0.6667 (   252 PWs)   bands (ev):

    -3.1183  -0.6450   3.6640   4.6196   8.9519   9.4194  10.8684  14.4061

     occupation numbers 
     1.0000   1.0000   1.0000   1.0000   0.0000   0.0000   0.0000   0.0000

          k =-0.1667 0.5000 0.0000 (   263 PWs)   bands (ev):

    -4.5525   2.4046   3.9096   4.6430   8.0763   9.8520  11.1990  12.0315

     occupation numbers 
     1.0000   1.0000   1.0000   1.0000   0.0000   0.0000   0.0000   0.0000

          k =-0.2500 0.5833-0.0833 (   258 PWs)   bands (ev):

    -4.0064   1.3332   3.3639   4.3430   8.4175  10.0672  10.9402  12.4249

     occupation numbers 
     1.0000   1.0000   1.0000   1.0000   0.0000   0.0000   0.0000   0.0000

          k = 0.6667-0.3333 0.8333 (   259 PWs)   bands (ev):

    -3.3618   0.2441   3.0062   4.1216   8.5395  10.5520  11.1715  12.4061

     occupation numbers 
     1.0000   1.0000   1.0000   1.0000   0.0000   0.0000   0.0000   0.0000

          k = 0.5833-0.2500 0.7500 (   256 PWs)   bands (ev):

    -2.8408  -0.4894   2.7586   4.1026   8.6749  10.2816  12.2931  12.6557

     occupation numbers 
     1.0000   1.0000   1.0000   1.0000   0.0000   0.0000   0.0000   0.0000

          k = 0.5000-0.1667 0.6667 (   259 PWs)   bands (ev):

    -2.9851  -0.2951   2.6320   4.2810   8.9358  10.0815  12.2073  13.0455

     occupation numbers 
     1.0000   1.0000   1.0000   1.0000   0.0000   0.0000   0.0000   0.0000

          k = 0.4167-0.0833 0.5833 (   259 PWs)   bands (ev):

    -3.5995   0.6143   2.6962   4.6088   9.3185   9.9333  11.6550  12.1539

     occupation numbers 
     1.0000   1.0000   1.0000   1.0000   0.0000   0.0000   0.0000   0.0000

          k = 0.3333-0.0000 0.5000 (   263 PWs)   bands (ev):

    -4.2208   1.6170   3.1132   5.0051   9.5343   9.7237  11.0132  11.7138

     occupation numbers 
     1.0000   1.0000   1.0000   1.0000   0.0000   0.0000   0.0000   0.0000

          k =-0.1667 0.6667 0.0000 (   257 PWs)   bands (ev):

    -3.7237   1.1387   3.3857   3.8286   7.6665   8.7646  12.4671  13.6373

     occupation numbers 
     1.0000   1.0000   1.0000   1.0000   0.0000   0.0000   0.0000   0.0000

          k = 0.7500-0.2500 0.9167 (   255 PWs)   bands (ev):

    -3.1019   0.2875   2.7784   3.6022   8.0058   9.3094  12.1581  14.0139

     occupation numbers 
     1.0000   1.0000   1.0000   1.0000   0.0000   0.0000   0.0000   0.0000

          k = 0.6667-0.1667 0.8333 (   256 PWs)   bands (ev):

    -2.4894  -0.4509   2.2388   3.6109   8.1592  10.6244  11.8556  13.9414

     occupation numbers 
     1.0000   1.0000   1.0000   1.0000   0.0000   0.0000   0.0000   0.0000

          k = 0.5833-0.0833 0.7500 (   257 PWs)   bands (ev):

    -2.4115  -0.5288   1.9373   3.8166   8.4262  11.4085  12.4250  13.1276

     occupation numbers 
     1.0000   1.0000   1.0000   1.0000   0.0000   0.0000   0.0000   0.0000

          k = 0.5000 0.0000 0.6667 (   260 PWs)   bands (ev):

    -2.9750   0.0784   2.0243   4.1712   8.8382  10.9943  11.8706  13.2417

     occupation numbers 
     1.0000   1.0000   1.0000   1.0000   0.0000   0.0000   0.0000   0.0000

          k = 0.8333-0.1667 1.0000 (   257 PWs)   bands (ev):

    -2.6941  -0.1905   3.0934   3.2945   7.4888   8.0032  13.8613  15.2703

     occupation numbers 
     1.0000   1.0000   1.0000   1.0000   0.0000   0.0000   0.0000   0.0000

          k = 0.7500-0.0833 0.9167 (   256 PWs)   bands (ev):

    -2.0446  -0.8442   2.4352   3.2501   7.7809   8.9338  13.5292  15.0247

     occupation numbers 
     1.0000   1.0000   1.0000   1.0000   0.0000   0.0000   0.0000   0.0000

          k = 0.6667-0.0000 0.8333 (   260 PWs)   bands (ev):

    -1.8748  -0.9724   1.9130   3.4532   8.0229  10.4897  13.0566  13.4463

     occupation numbers 
     1.0000   1.0000   1.0000   1.0000   0.0000   0.0000   0.0000   0.0000

          k =-0.1667-1.0000 0.0000 (   254 PWs)   bands (ev):

    -1.4939  -1.4939   3.0571   3.0571   7.5845   7.5845  15.3505  15.3505

     occupation numbers 
     1.0000   1.0000   1.0000   1.0000   0.0000   0.0000   0.0000   0.0000

          k = 0.6667-0.3333 1.0000 (   260 PWs)   bands (ev):

    -3.4303   0.6645   2.6284   3.9453   9.1633  10.0114  10.6174  13.4836

     occupation numbers 
     1.0000   1.0000   1.0000   1.0000   0.0000   0.0000   0.0000   0.0000

          k = 0.5833-0.2500 0.9167 (   257 PWs)   bands (ev):

    -2.7844  -0.1222   2.2744   3.5945   9.5351  10.0977  11.1176  13.9233

     occupation numbers 
     1.0000   1.0000   1.0000   1.0000   0.0000   0.0000   0.0000   0.0000

          k = 0.5000-0.1667 0.8333 (   258 PWs)   bands (ev):

    -2.4068  -0.5724   2.1818   3.4591   9.6438   9.9097  12.4660  12.9121

     occupation numbers 
     1.0000   1.0000   1.0000   1.0000   0.0000   0.0000   0.0000   0.0000

          k = 0.6667-0.1667 1.0000 (   249 PWs)   bands (ev):

    -2.4638  -0.3322   2.4221   3.0582   8.9869   9.3869  11.7705  14.7319

     occupation numbers 
     1.0000   1.0000   1.0000   1.0000   0.0000   0.0000   0.0000   0.0000

          k = 0.5833-0.0833 0.9167 (   258 PWs)   bands (ev):

    -1.9259  -0.8561   2.0890   2.8974   9.3259  10.5995  11.4900  12.8833

     occupation numbers 
     1.0000   1.0000   1.0000   1.0000   0.0000   0.0000   0.0000   0.0000

          k = 0.5000-0.0000 0.8333 (   259 PWs)   bands (ev):

    -2.1650  -0.6232   1.9589   3.1316   9.6357  10.8065  11.3643  12.6232

     occupation numbers 
     1.0000   1.0000   1.0000   1.0000   0.0000   0.0000   0.0000   0.0000

          k =-0.3333-1.0000 0.0000 (   258 PWs)   bands (ev):

    -1.4070  -1.4070   2.5447   2.5447   9.0429   9.0429  13.1602  13.1602

     occupation numbers 
     1.0000   1.0000   1.0000   1.0000   0.0000   0.0000   0.0000   0.0000

          k =-0.5000-1.0000 0.0000 (   264 PWs)   bands (ev):

    -1.3629  -1.3629   2.3248   2.3248  10.5670  10.5670  11.3851  11.3851

     occupation numbers 
     1.0000   1.0000   1.0000   1.0000   0.0000   0.0000   0.0000   0.0000

     highest occupied, lowest unoccupied level (ev):     6.3137    6.8198

!    total energy              =     -15.83452330 Ry
     Harris-Foulkes estimate   =     -15.83452330 Ry
     estimated scf accuracy    <          3.3E-13 Ry

     The total energy is the sum of the following terms:

     one-electron contribution =       4.84131337 Ry
     hartree contribution      =       1.06957052 Ry
     xc contribution           =      -4.81743532 Ry
     ewald contribution        =     -16.92797188 Ry

     convergence has been achieved in   8 iterations

     Writing output data file Si_scf.save

     init_run     :      0.38s CPU      0.38s WALL (       1 calls)
     electrons    :      9.44s CPU      9.49s WALL (       1 calls)

     Called by init_run:
     wfcinit      :      0.34s CPU      0.34s WALL (       1 calls)
     potinit      :      0.00s CPU      0.00s WALL (       1 calls)

     Called by electrons:
     c_bands      :      8.05s CPU      8.10s WALL (       9 calls)
     sum_band     :      1.37s CPU      1.38s WALL (       9 calls)
     v_of_rho     :      0.01s CPU      0.01s WALL (       9 calls)
     v_h          :      0.00s CPU      0.00s WALL (       9 calls)
     v_xc         :      0.01s CPU      0.01s WALL (       9 calls)
     mix_rho      :      0.01s CPU      0.01s WALL (       9 calls)

     Called by c_bands:
     init_us_2    :      0.10s CPU      0.10s WALL (    1368 calls)
     cegterg      :      7.98s CPU      8.01s WALL (     648 calls)

     Called by sum_band:

     Called by *egterg:
     h_psi        :      7.13s CPU      7.15s WALL (    2537 calls)
     g_psi        :      0.03s CPU      0.04s WALL (    1817 calls)
     cdiaghg      :      0.53s CPU      0.55s WALL (    2393 calls)
     cegterg:over :      0.25s CPU      0.25s WALL (    1817 calls)
     cegterg:upda :      0.13s CPU      0.14s WALL (    1817 calls)
     cegterg:last :      0.10s CPU      0.08s WALL (     672 calls)

     Called by h_psi:
     h_psi:vloc   :      6.94s CPU      6.95s WALL (    2537 calls)
     h_psi:vnl    :      0.18s CPU      0.18s WALL (    2537 calls)
     add_vuspsi   :      0.07s CPU      0.08s WALL (    2537 calls)

     General routines
     calbec       :      0.09s CPU      0.09s WALL (    2537 calls)
     fft          :      0.01s CPU      0.01s WALL (      37 calls)
     fftw         :      7.90s CPU      7.88s WALL (   34032 calls)

     Parallel routines
     fft_scatter  :      0.23s CPU      0.22s WALL (   34069 calls)

     PWSCF        :    10.11s CPU        10.18s WALL


   This run was terminated on:  20:58:37  28Oct2016            

=------------------------------------------------------------------------------=
   JOB DONE.
=------------------------------------------------------------------------------=
