
     Program PWSCF v.5.0.2 (svn rev. 9656) starts on 30Jun2015 at 10:52:50 

     This program is part of the open-source Quantum ESPRESSO suite
     for quantum simulation of materials; please cite
         "P. Giannozzi et al., J. Phys.:Condens. Matter 21 395502 (2009);
          URL http://www.quantum-espresso.org", 
     in publications or presentations arising from this work. More details at
     http://www.quantum-espresso.org/quote.php

     Parallel version (MPI), running on     1 processors

     Current dimensions of program PWSCF are:
     Max number of different atomic species (ntypx) = 10
     Max number of k-points (npk) =  40000
     Max angular momentum in pseudopotentials (lmaxx) =  3
     Waiting for input...
     Reading input from standard input

     Atomic positions and unit cell read from directory:
     ./Si_shifted_nscf.save/


     Subspace diagonalization in iterative solution of the eigenvalue problem:
     a serial algorithm will be used


     G-vector sticks info
     --------------------
     sticks:   dense  smooth     PW     G-vecs:    dense   smooth      PW
     Sum         211     211     85                 2085     2085     459



     bravais-lattice index     =            2
     lattice parameter (alat)  =      10.1830  a.u.
     unit-cell volume          =     263.9777 (a.u.)^3
     number of atoms/cell      =            2
     number of atomic types    =            1
     number of electrons       =         8.00
     number of Kohn-Sham states=           32
     kinetic-energy cutoff     =      15.0000  Ry
     charge density cutoff     =      60.0000  Ry
     Exchange-correlation      =  SLA  PZ   NOGX NOGC ( 1 1 0 0 0)
     EXX-fraction              =        0.00

     celldm(1)=  10.183000  celldm(2)=   0.000000  celldm(3)=   0.000000
     celldm(4)=   0.000000  celldm(5)=   0.000000  celldm(6)=   0.000000

     crystal axes: (cart. coord. in units of alat)
               a(1) = (  -0.500000   0.000000   0.500000 )  
               a(2) = (   0.000000   0.500000   0.500000 )  
               a(3) = (  -0.500000   0.500000   0.000000 )  

     reciprocal axes: (cart. coord. in units 2 pi/alat)
               b(1) = ( -1.000000 -1.000000  1.000000 )  
               b(2) = (  1.000000  1.000000  1.000000 )  
               b(3) = ( -1.000000  1.000000 -1.000000 )  


     PseudoPot. # 1 for Si read from file:
     ./Si.vbc.UPF
     MD5 check sum: 7974b67c806a44bbea7c2da40a3c413a
     Pseudo is Norm-conserving, Zval =  4.0
     Generated by new atomic code, or converted to UPF format
     Using radial grid of  431 points,  2 beta functions with: 
                l(1) =   0
                l(2) =   1

     atomic species   valence    mass     pseudopotential
        Si             4.00    28.08600     Si( 1.00)

     24 Sym. Ops. (no inversion) found


                                    s                        frac. trans.

      isym =  1     identity                                     

 cryst.   s( 1) = (     1          0          0      )
                  (     0          1          0      )
                  (     0          0          1      )

 cart.    s( 1) = (  1.0000000  0.0000000  0.0000000 )
                  (  0.0000000  1.0000000  0.0000000 )
                  (  0.0000000  0.0000000  1.0000000 )


      isym =  2     180 deg rotation - cart. axis [0,0,1]        

 cryst.   s( 2) = (     0          1         -1      )
                  (     1          0         -1      )
                  (     0          0         -1      )

 cart.    s( 2) = ( -1.0000000  0.0000000  0.0000000 )
                  (  0.0000000 -1.0000000  0.0000000 )
                  (  0.0000000  0.0000000  1.0000000 )


      isym =  3     180 deg rotation - cart. axis [0,1,0]        

 cryst.   s( 3) = (    -1          0          0      )
                  (    -1          0          1      )
                  (    -1          1          0      )

 cart.    s( 3) = ( -1.0000000  0.0000000  0.0000000 )
                  (  0.0000000  1.0000000  0.0000000 )
                  (  0.0000000  0.0000000 -1.0000000 )


      isym =  4     180 deg rotation - cart. axis [1,0,0]        

 cryst.   s( 4) = (     0         -1          1      )
                  (     0         -1          0      )
                  (     1         -1          0      )

 cart.    s( 4) = (  1.0000000  0.0000000  0.0000000 )
                  (  0.0000000 -1.0000000  0.0000000 )
                  (  0.0000000  0.0000000 -1.0000000 )


      isym =  5     120 deg rotation - cart. axis [-1,-1,-1]     

 cryst.   s( 5) = (    -1          0          1      )
                  (    -1          1          0      )
                  (    -1          0          0      )

 cart.    s( 5) = (  0.0000000  1.0000000  0.0000000 )
                  (  0.0000000  0.0000000  1.0000000 )
                  (  1.0000000  0.0000000  0.0000000 )


      isym =  6     120 deg rotation - cart. axis [-1,1,1]       

 cryst.   s( 6) = (     0          1          0      )
                  (     0          0          1      )
                  (     1          0          0      )

 cart.    s( 6) = (  0.0000000 -1.0000000  0.0000000 )
                  (  0.0000000  0.0000000  1.0000000 )
                  ( -1.0000000  0.0000000  0.0000000 )


      isym =  7     120 deg rotation - cart. axis [1,1,-1]       

 cryst.   s( 7) = (     1          0         -1      )
                  (     0          0         -1      )
                  (     0          1         -1      )

 cart.    s( 7) = (  0.0000000  1.0000000  0.0000000 )
                  (  0.0000000  0.0000000 -1.0000000 )
                  ( -1.0000000  0.0000000  0.0000000 )


      isym =  8     120 deg rotation - cart. axis [1,-1,1]       

 cryst.   s( 8) = (     0         -1          0      )
                  (     1         -1          0      )
                  (     0         -1          1      )

 cart.    s( 8) = (  0.0000000 -1.0000000  0.0000000 )
                  (  0.0000000  0.0000000 -1.0000000 )
                  (  1.0000000  0.0000000  0.0000000 )


      isym =  9     120 deg rotation - cart. axis [1,1,1]        

 cryst.   s( 9) = (     0          0         -1      )
                  (     0          1         -1      )
                  (     1          0         -1      )

 cart.    s( 9) = (  0.0000000  0.0000000  1.0000000 )
                  (  1.0000000  0.0000000  0.0000000 )
                  (  0.0000000  1.0000000  0.0000000 )


      isym = 10     120 deg rotation - cart. axis [-1,1,-1]      

 cryst.   s(10) = (    -1          1          0      )
                  (    -1          0          0      )
                  (    -1          0          1      )

 cart.    s(10) = (  0.0000000  0.0000000  1.0000000 )
                  ( -1.0000000  0.0000000  0.0000000 )
                  (  0.0000000 -1.0000000  0.0000000 )


      isym = 11     120 deg rotation - cart. axis [1,-1,-1]      

 cryst.   s(11) = (     0          0          1      )
                  (     1          0          0      )
                  (     0          1          0      )

 cart.    s(11) = (  0.0000000  0.0000000 -1.0000000 )
                  ( -1.0000000  0.0000000  0.0000000 )
                  (  0.0000000  1.0000000  0.0000000 )


      isym = 12     120 deg rotation - cart. axis [-1,-1,1]      

 cryst.   s(12) = (     1         -1          0      )
                  (     0         -1          1      )
                  (     0         -1          0      )

 cart.    s(12) = (  0.0000000  0.0000000 -1.0000000 )
                  (  1.0000000  0.0000000  0.0000000 )
                  (  0.0000000 -1.0000000  0.0000000 )


      isym = 13     inv. 180 deg rotation - cart. axis [1,1,0]   

 cryst.   s(13) = (     0          1          0      )
                  (     1          0          0      )
                  (     0          0          1      )

 cart.    s(13) = (  0.0000000 -1.0000000  0.0000000 )
                  ( -1.0000000  0.0000000  0.0000000 )
                  (  0.0000000  0.0000000  1.0000000 )


      isym = 14     inv. 180 deg rotation - cart. axis [1,-1,0]  

 cryst.   s(14) = (     1          0         -1      )
                  (     0          1         -1      )
                  (     0          0         -1      )

 cart.    s(14) = (  0.0000000  1.0000000  0.0000000 )
                  (  1.0000000  0.0000000  0.0000000 )
                  (  0.0000000  0.0000000  1.0000000 )


      isym = 15     inv.  90 deg rotation - cart. axis [0,0,-1]  

 cryst.   s(15) = (     0         -1          0      )
                  (     0         -1          1      )
                  (     1         -1          0      )

 cart.    s(15) = (  0.0000000 -1.0000000  0.0000000 )
                  (  1.0000000  0.0000000  0.0000000 )
                  (  0.0000000  0.0000000 -1.0000000 )


      isym = 16     inv.  90 deg rotation - cart. axis [0,0,1]   

 cryst.   s(16) = (    -1          0          1      )
                  (    -1          0          0      )
                  (    -1          1          0      )

 cart.    s(16) = (  0.0000000  1.0000000  0.0000000 )
                  ( -1.0000000  0.0000000  0.0000000 )
                  (  0.0000000  0.0000000 -1.0000000 )


      isym = 17     inv. 180 deg rotation - cart. axis [1,0,1]   

 cryst.   s(17) = (     1          0          0      )
                  (     0          0          1      )
                  (     0          1          0      )

 cart.    s(17) = (  0.0000000  0.0000000 -1.0000000 )
                  (  0.0000000  1.0000000  0.0000000 )
                  ( -1.0000000  0.0000000  0.0000000 )


      isym = 18     inv. 180 deg rotation - cart. axis [-1,0,1]  

 cryst.   s(18) = (    -1          0          0      )
                  (    -1          1          0      )
                  (    -1          0          1      )

 cart.    s(18) = (  0.0000000  0.0000000  1.0000000 )
                  (  0.0000000  1.0000000  0.0000000 )
                  (  1.0000000  0.0000000  0.0000000 )


      isym = 19     inv.  90 deg rotation - cart. axis [0,1,0]   

 cryst.   s(19) = (     0         -1          1      )
                  (     1         -1          0      )
                  (     0         -1          0      )

 cart.    s(19) = (  0.0000000  0.0000000 -1.0000000 )
                  (  0.0000000 -1.0000000  0.0000000 )
                  (  1.0000000  0.0000000  0.0000000 )


      isym = 20     inv.  90 deg rotation - cart. axis [0,-1,0]  

 cryst.   s(20) = (     0          1         -1      )
                  (     0          0         -1      )
                  (     1          0         -1      )

 cart.    s(20) = (  0.0000000  0.0000000  1.0000000 )
                  (  0.0000000 -1.0000000  0.0000000 )
                  ( -1.0000000  0.0000000  0.0000000 )


      isym = 21     inv. 180 deg rotation - cart. axis [0,1,1]   

 cryst.   s(21) = (     1         -1          0      )
                  (     0         -1          0      )
                  (     0         -1          1      )

 cart.    s(21) = (  1.0000000  0.0000000  0.0000000 )
                  (  0.0000000  0.0000000 -1.0000000 )
                  (  0.0000000 -1.0000000  0.0000000 )


      isym = 22     inv. 180 deg rotation - cart. axis [0,1,-1]  

 cryst.   s(22) = (     0          0          1      )
                  (     0          1          0      )
                  (     1          0          0      )

 cart.    s(22) = (  1.0000000  0.0000000  0.0000000 )
                  (  0.0000000  0.0000000  1.0000000 )
                  (  0.0000000  1.0000000  0.0000000 )


      isym = 23     inv.  90 deg rotation - cart. axis [-1,0,0]  

 cryst.   s(23) = (     0          0         -1      )
                  (     1          0         -1      )
                  (     0          1         -1      )

 cart.    s(23) = ( -1.0000000  0.0000000  0.0000000 )
                  (  0.0000000  0.0000000 -1.0000000 )
                  (  0.0000000  1.0000000  0.0000000 )


      isym = 24     inv.  90 deg rotation - cart. axis [1,0,0]   

 cryst.   s(24) = (    -1          1          0      )
                  (    -1          0          1      )
                  (    -1          0          0      )

 cart.    s(24) = ( -1.0000000  0.0000000  0.0000000 )
                  (  0.0000000  0.0000000  1.0000000 )
                  (  0.0000000 -1.0000000  0.0000000 )


     point group T_d (-43m) 
     there are  5 classes
     the character table:

       E     8C3   3C2   6S4   6s_d 
A_1    1.00  1.00  1.00  1.00  1.00
A_2    1.00  1.00  1.00 -1.00 -1.00
E      2.00 -1.00  2.00  0.00  0.00
T_1    3.00  0.00 -1.00  1.00 -1.00
T_2    3.00  0.00 -1.00 -1.00  1.00

     the symmetry operations in each class:
     E        1
     3C2      2    3    4
     8C3      5    7    8    6   12    9   10   11
     6s_d    13   14   17   18   21   22
     6S4     15   16   20   19   23   24

   Cartesian axes

     site n.     atom                  positions (alat units)
         1           Si  tau(   1) = (   0.0000000   0.0000000   0.0000000  )
         2           Si  tau(   2) = (   0.2500000   0.2500000   0.2500000  )

   Crystallographic axes

     site n.     atom                  positions (cryst. coord.)
         1           Si  tau(   1) = (  0.0000000  0.0000000  0.0000000  )
         2           Si  tau(   2) = ( -0.2500000  0.7500000 -0.2500000  )

     number of k points=    30
                       cart. coord. in units 2pi/alat
        k(    1) = (  -0.1249190   0.1250000   0.1250000), wk =   0.0666667
        k(    2) = (  -0.3749190   0.3750000  -0.1250000), wk =   0.0666667
        k(    3) = (   0.3750810  -0.3750000   0.6250000), wk =   0.0666667
        k(    4) = (   0.1250810  -0.1250000   0.3750000), wk =   0.0666667
        k(    5) = (  -0.1249190   0.6250000   0.1250000), wk =   0.0666667
        k(    6) = (   0.6250811  -0.1250000   0.8749999), wk =   0.0666667
        k(    7) = (   0.3750810   0.1250000   0.6250000), wk =   0.0666667
        k(    8) = (  -0.1249190  -0.8749999   0.1250000), wk =   0.0666667
        k(    9) = (  -0.3749190   0.3750000   0.3750000), wk =   0.0666667
        k(   10) = (   0.3750810  -0.3750000   1.1250000), wk =   0.0666667
        k(   11) = (  -0.1250000   0.1250810   0.1250000), wk =   0.0666667
        k(   12) = (  -0.3750000   0.3750810  -0.1250000), wk =   0.0666667
        k(   13) = (   0.3750000  -0.3749190   0.6250000), wk =   0.0666667
        k(   14) = (   0.1250000  -0.1249190   0.3750000), wk =   0.0666667
        k(   15) = (  -0.1250000   0.6250811   0.1250000), wk =   0.0666667
        k(   16) = (   0.6250000  -0.1249190   0.8749999), wk =   0.0666667
        k(   17) = (   0.3750000   0.1250810   0.6250000), wk =   0.0666667
        k(   18) = (  -0.1250000  -0.8749189   0.1250000), wk =   0.0666667
        k(   19) = (  -0.3750000   0.3750810   0.3750000), wk =   0.0666667
        k(   20) = (   0.3750000  -0.3749190   1.1250000), wk =   0.0666667
        k(   21) = (  -0.1250000   0.1250000   0.1250810), wk =   0.0666667
        k(   22) = (  -0.3750000   0.3750000  -0.1249190), wk =   0.0666667
        k(   23) = (   0.3750000  -0.3750000   0.6250811), wk =   0.0666667
        k(   24) = (   0.1250000  -0.1250000   0.3750810), wk =   0.0666667
        k(   25) = (  -0.1250000   0.6250000   0.1250810), wk =   0.0666667
        k(   26) = (   0.6250000  -0.1250000   0.8750810), wk =   0.0666667
        k(   27) = (   0.3750000   0.1250000   0.6250811), wk =   0.0666667
        k(   28) = (  -0.1250000  -0.8749999   0.1250810), wk =   0.0666667
        k(   29) = (  -0.3750000   0.3750000   0.3750810), wk =   0.0666667
        k(   30) = (   0.3750000  -0.3750000   1.1250811), wk =   0.0666667

                       cryst. coord.
        k(    1) = (   0.1249595   0.1250000   0.1249595), wk =   0.0666667
        k(    2) = (   0.1249595   0.1250000   0.3749595), wk =   0.0666667
        k(    3) = (   0.1249595   0.1250000  -0.3750405), wk =   0.0666667
        k(    4) = (   0.1249595   0.1250000  -0.1250405), wk =   0.0666667
        k(    5) = (   0.1249595   0.3750000   0.3749595), wk =   0.0666667
        k(    6) = (   0.1249594   0.3750000  -0.3750405), wk =   0.0666667
        k(    7) = (   0.1249595   0.3750000  -0.1250405), wk =   0.0666667
        k(    8) = (   0.1249595  -0.3750000  -0.3750405), wk =   0.0666667
        k(    9) = (   0.3749595   0.3750000   0.3749595), wk =   0.0666667
        k(   10) = (   0.3749595   0.3750000  -0.3750405), wk =   0.0666667
        k(   11) = (   0.1250000   0.1250405   0.1250405), wk =   0.0666667
        k(   12) = (   0.1250000   0.1250405   0.3750405), wk =   0.0666667
        k(   13) = (   0.1250000   0.1250405  -0.3749595), wk =   0.0666667
        k(   14) = (   0.1250000   0.1250405  -0.1249595), wk =   0.0666667
        k(   15) = (   0.1250000   0.3750405   0.3750405), wk =   0.0666667
        k(   16) = (   0.1250000   0.3750405  -0.3749595), wk =   0.0666667
        k(   17) = (   0.1250000   0.3750405  -0.1249595), wk =   0.0666667
        k(   18) = (   0.1250000  -0.3749595  -0.3749595), wk =   0.0666667
        k(   19) = (   0.3750000   0.3750405   0.3750405), wk =   0.0666667
        k(   20) = (   0.3750000   0.3750405  -0.3749595), wk =   0.0666667
        k(   21) = (   0.1250405   0.1250405   0.1250000), wk =   0.0666667
        k(   22) = (   0.1250405   0.1250405   0.3750000), wk =   0.0666667
        k(   23) = (   0.1250405   0.1250405  -0.3750000), wk =   0.0666667
        k(   24) = (   0.1250405   0.1250405  -0.1250000), wk =   0.0666667
        k(   25) = (   0.1250405   0.3750405   0.3750000), wk =   0.0666667
        k(   26) = (   0.1250405   0.3750405  -0.3750000), wk =   0.0666667
        k(   27) = (   0.1250405   0.3750405  -0.1250000), wk =   0.0666667
        k(   28) = (   0.1250405  -0.3749595  -0.3750000), wk =   0.0666667
        k(   29) = (   0.3750405   0.3750405   0.3750000), wk =   0.0666667
        k(   30) = (   0.3750406   0.3750406  -0.3750000), wk =   0.0666667

     Dense  grid:     2085 G-vectors     FFT dimensions: (  18,  18,  18)

     Largest allocated arrays     est. size (Mb)     dimensions
        Kohn-Sham Wavefunctions         0.13 Mb     (    271,   32)
        NL pseudopotentials             0.03 Mb     (    271,    8)
        Each V/rho on FFT grid          0.09 Mb     (   5832)
        Each G-vector array             0.02 Mb     (   2085)
        G-vector shells                 0.00 Mb     (     54)
     Largest temporary arrays     est. size (Mb)     dimensions
        Auxiliary wavefunctions         0.53 Mb     (    271,  128)
        Each subspace H/S matrix        0.25 Mb     ( 128, 128)
        Each <psi_i|beta_j> matrix      0.00 Mb     (      8,   32)

     The potential is recalculated from file :
     ./Si_shifted_nscf.save/charge-density.dat

     Starting wfc are    8 randomized atomic wfcs

     total cpu time spent up to now is        0.1 secs

     per-process dynamical memory:     4.2 Mb

     Band Structure Calculation
     Davidson diagonalization with overlap

     Computing kpt #:     1
     total cpu time spent up to now is        0.3 secs

     Computing kpt #:     2
     total cpu time spent up to now is        0.8 secs

     Computing kpt #:     3
     total cpu time spent up to now is        1.0 secs

     Computing kpt #:     4
     total cpu time spent up to now is        1.4 secs

     Computing kpt #:     5
     total cpu time spent up to now is        1.7 secs

     Computing kpt #:     6
     total cpu time spent up to now is        2.0 secs

     Computing kpt #:     7
     total cpu time spent up to now is        2.3 secs

     Computing kpt #:     8
     total cpu time spent up to now is        2.5 secs

     Computing kpt #:     9
     total cpu time spent up to now is        2.7 secs

     Computing kpt #:    10
     total cpu time spent up to now is        3.0 secs

     Computing kpt #:    11
     total cpu time spent up to now is        3.3 secs

     Computing kpt #:    12
     total cpu time spent up to now is        3.6 secs

     Computing kpt #:    13
     total cpu time spent up to now is        3.9 secs

     Computing kpt #:    14
     total cpu time spent up to now is        4.1 secs

     Computing kpt #:    15
     total cpu time spent up to now is        4.4 secs

     Computing kpt #:    16
     total cpu time spent up to now is        4.7 secs

     Computing kpt #:    17
     total cpu time spent up to now is        5.0 secs

     Computing kpt #:    18
     total cpu time spent up to now is        5.2 secs

     Computing kpt #:    19
     total cpu time spent up to now is        5.4 secs

     Computing kpt #:    20
     total cpu time spent up to now is        5.7 secs

     Computing kpt #:    21
     total cpu time spent up to now is        6.0 secs

     Computing kpt #:    22
     total cpu time spent up to now is        6.4 secs

     Computing kpt #:    23
     total cpu time spent up to now is        6.6 secs

     Computing kpt #:    24
     total cpu time spent up to now is        6.9 secs

     Computing kpt #:    25
     total cpu time spent up to now is        7.2 secs

     Computing kpt #:    26
     total cpu time spent up to now is        7.5 secs

     Computing kpt #:    27
     total cpu time spent up to now is        7.7 secs

     Computing kpt #:    28
     total cpu time spent up to now is        8.0 secs

     Computing kpt #:    29
     total cpu time spent up to now is        8.2 secs

     Computing kpt #:    30
     total cpu time spent up to now is        8.5 secs

     ethr =  1.25E-12,  avg # of iterations = 22.6

     total cpu time spent up to now is        8.5 secs

     End of band structure calculation

          k =-0.1249 0.1250 0.1250     band energies (ev):

    -5.5661   4.7062   6.0125   6.0128   8.8582   9.3235   9.3239  11.1306
    13.7024  13.7030  14.9174  16.9873  18.8244  18.8250  22.8159  27.6858
    27.6867  27.8681  30.5860  30.5861  32.7849  32.7850  33.6013  36.3533
    38.3543  38.3550  39.1466  41.2358  41.2366  41.9513  43.7280  43.7289

     occupation numbers 
     1.0000   1.0000   1.0000   1.0000   0.0000   0.0000   0.0000   0.0000
     0.0000   0.0000   0.0000   0.0000   0.0000   0.0000   0.0000   0.0000
     0.0000   0.0000   0.0000   0.0000   0.0000   0.0000   0.0000   0.0000
     0.0000   0.0000   0.0000   0.0000   0.0000   0.0000   0.0000   0.0000

          k =-0.3749 0.3750-0.1250     band energies (ev):

    -4.4932   1.6482   3.9404   5.5178   9.0971  10.0217  10.1917  12.6542
    12.8947  16.1131  16.5500  18.7843  20.4838  21.8454  23.0029  24.5066
    25.3990  28.0888  28.6254  29.5413  32.6712  33.2035  33.6756  36.2113
    36.2940  37.4661  37.8878  38.8546  40.0945  41.1120  41.3821  43.9127

     occupation numbers 
     1.0000   1.0000   1.0000   1.0000   0.0000   0.0000   0.0000   0.0000
     0.0000   0.0000   0.0000   0.0000   0.0000   0.0000   0.0000   0.0000
     0.0000   0.0000   0.0000   0.0000   0.0000   0.0000   0.0000   0.0000
     0.0000   0.0000   0.0000   0.0000   0.0000   0.0000   0.0000   0.0000

          k = 0.3751-0.3750 0.6250     band energies (ev):

    -3.2841  -0.5350   3.9903   4.7075   8.5329   9.8577  10.4590  13.7315
    15.3025  17.0201  17.9241  18.1722  18.9266  21.5161  24.7470  26.2406
    26.7726  27.6983  28.6100  28.9344  31.2354  32.3957  33.0794  34.2787
    34.7222  36.0957  36.6188  36.6717  39.2174  40.1376  40.5794  40.7255

     occupation numbers 
     1.0000   1.0000   1.0000   1.0000   0.0000   0.0000   0.0000   0.0000
     0.0000   0.0000   0.0000   0.0000   0.0000   0.0000   0.0000   0.0000
     0.0000   0.0000   0.0000   0.0000   0.0000   0.0000   0.0000   0.0000
     0.0000   0.0000   0.0000   0.0000   0.0000   0.0000   0.0000   0.0000

          k = 0.1251-0.1250 0.3750     band energies (ev):

    -5.0137   3.0797   4.9544   5.0476   8.4492  10.1051  10.8437  11.0947
    13.9286  14.6888  16.2578  17.8949  19.5882  20.8729  24.1426  24.5681
    25.6415  28.0884  28.2905  29.5660  32.7257  33.9130  34.9553  36.3547
    38.2214  38.7268  38.7550  39.8426  40.3361  41.1908  42.1183  42.7684

     occupation numbers 
     1.0000   1.0000   1.0000   1.0000   0.0000   0.0000   0.0000   0.0000
     0.0000   0.0000   0.0000   0.0000   0.0000   0.0000   0.0000   0.0000
     0.0000   0.0000   0.0000   0.0000   0.0000   0.0000   0.0000   0.0000
     0.0000   0.0000   0.0000   0.0000   0.0000   0.0000   0.0000   0.0000

          k =-0.1249 0.6250 0.1250     band energies (ev):

    -3.9362   1.3787   3.5650   4.0424   7.6219   9.1918  12.4056  12.6800
    16.5380  16.5992  17.9931  19.7682  20.0957  21.3115  22.3560  23.5217
    25.0532  26.3254  28.4607  30.7198  31.6737  33.0360  33.0545  33.8926
    35.5628  35.9741  37.0309  39.6570  40.2988  42.1361  42.6263  43.4960

     occupation numbers 
     1.0000   1.0000   1.0000   1.0000   0.0000   0.0000   0.0000   0.0000
     0.0000   0.0000   0.0000   0.0000   0.0000   0.0000   0.0000   0.0000
     0.0000   0.0000   0.0000   0.0000   0.0000   0.0000   0.0000   0.0000
     0.0000   0.0000   0.0000   0.0000   0.0000   0.0000   0.0000   0.0000

          k = 0.6251-0.1250 0.8750     band energies (ev):

    -2.2143  -0.6399   2.1182   3.2570   8.6779  10.5980  11.6609  13.8416
    14.8504  17.5833  18.7144  20.6735  21.8981  22.5314  23.9932  24.7690
    25.3104  25.9809  27.5448  28.3280  29.2894  30.7534  31.4960  34.1908
    34.5189  35.3595  37.2898  37.7096  38.7308  39.1305  40.8664  43.1934

     occupation numbers 
     1.0000   1.0000   1.0000   1.0000   0.0000   0.0000   0.0000   0.0000
     0.0000   0.0000   0.0000   0.0000   0.0000   0.0000   0.0000   0.0000
     0.0000   0.0000   0.0000   0.0000   0.0000   0.0000   0.0000   0.0000
     0.0000   0.0000   0.0000   0.0000   0.0000   0.0000   0.0000   0.0000

          k = 0.3751 0.1250 0.6250     band energies (ev):

    -3.4973   0.4321   2.9023   4.3260   9.1942   9.8903  11.3757  12.3330
    15.4729  16.1298  18.3731  19.4301  20.6824  21.5780  23.7512  24.7815
    25.5990  27.5486  28.4422  29.3818  30.7542  32.1692  32.5311  33.7155
    35.3590  36.2454  37.8780  38.0668  38.9548  39.9373  41.1096  42.4610

     occupation numbers 
     1.0000   1.0000   1.0000   1.0000   0.0000   0.0000   0.0000   0.0000
     0.0000   0.0000   0.0000   0.0000   0.0000   0.0000   0.0000   0.0000
     0.0000   0.0000   0.0000   0.0000   0.0000   0.0000   0.0000   0.0000
     0.0000   0.0000   0.0000   0.0000   0.0000   0.0000   0.0000   0.0000

          k =-0.1249-0.8750 0.1250     band energies (ev):

    -2.4024  -0.5276   2.7679   3.5553   7.1444   8.2475  14.7148  14.7782
    17.2059  17.3363  18.9153  19.2660  21.3460  21.5833  22.3572  25.1587
    25.2400  25.8693  27.2682  28.8867  29.1007  30.0514  30.6998  32.5697
    36.1183  36.6157  38.4451  39.1620  39.8457  41.1391  42.3532  42.5889

     occupation numbers 
     1.0000   1.0000   1.0000   1.0000   0.0000   0.0000   0.0000   0.0000
     0.0000   0.0000   0.0000   0.0000   0.0000   0.0000   0.0000   0.0000
     0.0000   0.0000   0.0000   0.0000   0.0000   0.0000   0.0000   0.0000
     0.0000   0.0000   0.0000   0.0000   0.0000   0.0000   0.0000   0.0000

          k =-0.3749 0.3750 0.3750     band energies (ev):

    -4.0356   0.2837   5.1988   5.1990   8.0508   9.7942   9.7944  14.0876
    15.0656  15.0664  16.0015  20.3310  20.3319  20.3955  23.0753  25.1020
    25.1028  29.2985  30.4162  30.5776  30.5776  33.4965  33.4975  35.0364
    35.0365  35.8772  37.6199  39.3250  39.3262  40.3736  40.3748  40.4305

     occupation numbers 
     1.0000   1.0000   1.0000   1.0000   0.0000   0.0000   0.0000   0.0000
     0.0000   0.0000   0.0000   0.0000   0.0000   0.0000   0.0000   0.0000
     0.0000   0.0000   0.0000   0.0000   0.0000   0.0000   0.0000   0.0000
     0.0000   0.0000   0.0000   0.0000   0.0000   0.0000   0.0000   0.0000

          k = 0.3751-0.3750 1.1250     band energies (ev):

    -2.7658  -0.3785   2.2057   4.3745   8.1334  11.8252  11.8714  13.3500
    14.3951  14.4393  18.9145  21.4517  21.5136  22.5408  22.9197  25.0658
    25.9832  26.4528  28.3471  28.7011  31.3615  31.7619  32.4987  32.9520
    34.2041  35.0735  36.0384  36.6876  39.9810  40.9176  41.6466  42.5148

     occupation numbers 
     1.0000   1.0000   1.0000   1.0000   0.0000   0.0000   0.0000   0.0000
     0.0000   0.0000   0.0000   0.0000   0.0000   0.0000   0.0000   0.0000
     0.0000   0.0000   0.0000   0.0000   0.0000   0.0000   0.0000   0.0000
     0.0000   0.0000   0.0000   0.0000   0.0000   0.0000   0.0000   0.0000

          k =-0.1250 0.1251 0.1250     band energies (ev):

    -5.5659   4.7052   6.0123   6.0126   8.8580   9.3238   9.3242  11.1315
    13.7022  13.7028  14.9180  16.9871  18.8253  18.8259  22.8169  27.6844
    27.6852  27.8670  30.5860  30.5861  32.7851  32.7852  33.6021  36.3535
    38.3557  38.3564  39.1450  41.2354  41.2361  41.9519  43.7264  43.7273

     occupation numbers 
     1.0000   1.0000   1.0000   1.0000   0.0000   0.0000   0.0000   0.0000
     0.0000   0.0000   0.0000   0.0000   0.0000   0.0000   0.0000   0.0000
     0.0000   0.0000   0.0000   0.0000   0.0000   0.0000   0.0000   0.0000
     0.0000   0.0000   0.0000   0.0000   0.0000   0.0000   0.0000   0.0000

          k =-0.3750 0.3751-0.1250     band energies (ev):

    -4.4927   1.6474   3.9397   5.5175   9.0971  10.0221  10.1919  12.6545
    12.8948  16.1135  16.5517  18.7847  20.4836  21.8453  23.0035  24.5060
    25.3993  28.0903  28.6247  29.5408  32.6698  33.2031  33.6752  36.2098
    36.2929  37.4661  37.8864  38.8536  40.0955  41.1119  41.3813  43.9116

     occupation numbers 
     1.0000   1.0000   1.0000   1.0000   0.0000   0.0000   0.0000   0.0000
     0.0000   0.0000   0.0000   0.0000   0.0000   0.0000   0.0000   0.0000
     0.0000   0.0000   0.0000   0.0000   0.0000   0.0000   0.0000   0.0000
     0.0000   0.0000   0.0000   0.0000   0.0000   0.0000   0.0000   0.0000

          k = 0.3750-0.3749 0.6250     band energies (ev):

    -3.2842  -0.5346   3.9899   4.7072   8.5328   9.8582  10.4596  13.7301
    15.3028  17.0208  17.9246  18.1717  18.9263  21.5180  24.7456  26.2389
    26.7736  27.6971  28.6094  28.9359  31.2341  32.3953  33.0811  34.2784
    34.7220  36.0969  36.6180  36.6717  39.2172  40.1384  40.5800  40.7261

     occupation numbers 
     1.0000   1.0000   1.0000   1.0000   0.0000   0.0000   0.0000   0.0000
     0.0000   0.0000   0.0000   0.0000   0.0000   0.0000   0.0000   0.0000
     0.0000   0.0000   0.0000   0.0000   0.0000   0.0000   0.0000   0.0000
     0.0000   0.0000   0.0000   0.0000   0.0000   0.0000   0.0000   0.0000

          k = 0.1250-0.1249 0.3750     band energies (ev):

    -5.0138   3.0806   4.9543   5.0474   8.4486  10.1057  10.8440  11.0942
    13.9280  14.6889  16.2582  17.8948  19.5872  20.8717  24.1436  24.5689
    25.6413  28.0892  28.2893  29.5659  32.7258  33.9130  34.9553  36.3554
    38.2213  38.7278  38.7554  39.8429  40.3355  41.1915  42.1174  42.7696

     occupation numbers 
     1.0000   1.0000   1.0000   1.0000   0.0000   0.0000   0.0000   0.0000
     0.0000   0.0000   0.0000   0.0000   0.0000   0.0000   0.0000   0.0000
     0.0000   0.0000   0.0000   0.0000   0.0000   0.0000   0.0000   0.0000
     0.0000   0.0000   0.0000   0.0000   0.0000   0.0000   0.0000   0.0000

          k =-0.1250 0.6251 0.1250     band energies (ev):

    -3.9357   1.3779   3.5645   4.0422   7.6219   9.1919  12.4059  12.6803
    16.5389  16.6005  17.9931  19.7673  20.0963  21.3112  22.3564  23.5227
    25.0529  26.3251  28.4609  30.7180  31.6742  33.0350  33.0546  33.8911
    35.5629  35.9734  37.0313  39.6565  40.2975  42.1356  42.6260  43.4957

     occupation numbers 
     1.0000   1.0000   1.0000   1.0000   0.0000   0.0000   0.0000   0.0000
     0.0000   0.0000   0.0000   0.0000   0.0000   0.0000   0.0000   0.0000
     0.0000   0.0000   0.0000   0.0000   0.0000   0.0000   0.0000   0.0000
     0.0000   0.0000   0.0000   0.0000   0.0000   0.0000   0.0000   0.0000

          k = 0.6250-0.1249 0.8750     band energies (ev):

    -2.2138  -0.6403   2.1180   3.2567   8.6786  10.5987  11.6606  13.8398
    14.8512  17.5829  18.7150  20.6740  21.8980  22.5330  23.9931  24.7683
    25.3107  25.9805  27.5443  28.3279  29.2885  30.7553  31.4957  34.1905
    34.5184  35.3579  37.2901  37.7098  38.7292  39.1303  40.8672  43.1940

     occupation numbers 
     1.0000   1.0000   1.0000   1.0000   0.0000   0.0000   0.0000   0.0000
     0.0000   0.0000   0.0000   0.0000   0.0000   0.0000   0.0000   0.0000
     0.0000   0.0000   0.0000   0.0000   0.0000   0.0000   0.0000   0.0000
     0.0000   0.0000   0.0000   0.0000   0.0000   0.0000   0.0000   0.0000

          k = 0.3750 0.1251 0.6250     band energies (ev):

    -3.4974   0.4321   2.9029   4.3260   9.1931   9.8911  11.3755  12.3325
    15.4740  16.1305  18.3727  19.4288  20.6815  21.5784  23.7511  24.7819
    25.5992  27.5478  28.4424  29.3823  30.7541  32.1694  32.5317  33.7157
    35.3600  36.2457  37.8775  38.0670  38.9548  39.9369  41.1111  42.4601

     occupation numbers 
     1.0000   1.0000   1.0000   1.0000   0.0000   0.0000   0.0000   0.0000
     0.0000   0.0000   0.0000   0.0000   0.0000   0.0000   0.0000   0.0000
     0.0000   0.0000   0.0000   0.0000   0.0000   0.0000   0.0000   0.0000
     0.0000   0.0000   0.0000   0.0000   0.0000   0.0000   0.0000   0.0000

          k =-0.1250-0.8749 0.1250     band energies (ev):

    -2.4029  -0.5270   2.7677   3.5555   7.1446   8.2483  14.7137  14.7770
    17.2061  17.3365  18.9149  19.2657  21.3467  21.5847  22.3558  25.1580
    25.2397  25.8696  27.2680  28.8882  29.1017  30.0513  30.7006  32.5704
    36.1181  36.6146  38.4455  39.1607  39.8445  41.1394  42.3534  42.5888

     occupation numbers 
     1.0000   1.0000   1.0000   1.0000   0.0000   0.0000   0.0000   0.0000
     0.0000   0.0000   0.0000   0.0000   0.0000   0.0000   0.0000   0.0000
     0.0000   0.0000   0.0000   0.0000   0.0000   0.0000   0.0000   0.0000
     0.0000   0.0000   0.0000   0.0000   0.0000   0.0000   0.0000   0.0000

          k =-0.3750 0.3751 0.3750     band energies (ev):

    -4.0352   0.2829   5.1987   5.1989   8.0507   9.7942   9.7944  14.0875
    15.0664  15.0673  16.0024  20.3298  20.3307  20.3956  23.0756  25.1033
    25.1042  29.2997  30.4146  30.5772  30.5773  33.4965  33.4975  35.0353
    35.0353  35.8771  37.6202  39.3247  39.3259  40.3731  40.3743  40.4290

     occupation numbers 
     1.0000   1.0000   1.0000   1.0000   0.0000   0.0000   0.0000   0.0000
     0.0000   0.0000   0.0000   0.0000   0.0000   0.0000   0.0000   0.0000
     0.0000   0.0000   0.0000   0.0000   0.0000   0.0000   0.0000   0.0000
     0.0000   0.0000   0.0000   0.0000   0.0000   0.0000   0.0000   0.0000

          k = 0.3750-0.3749 1.1250     band energies (ev):

    -2.7653  -0.3789   2.2054   4.3741   8.1330  11.8259  11.8722  13.3483
    14.3958  14.4401  18.9153  21.4510  21.5133  22.5424  22.9207  25.0648
    25.9833  26.4520  28.3471  28.6997  31.3614  31.7608  32.4995  32.9503
    34.2050  35.0752  36.0385  36.6860  39.9806  40.9178  41.6460  42.5145

     occupation numbers 
     1.0000   1.0000   1.0000   1.0000   0.0000   0.0000   0.0000   0.0000
     0.0000   0.0000   0.0000   0.0000   0.0000   0.0000   0.0000   0.0000
     0.0000   0.0000   0.0000   0.0000   0.0000   0.0000   0.0000   0.0000
     0.0000   0.0000   0.0000   0.0000   0.0000   0.0000   0.0000   0.0000

          k =-0.1250 0.1250 0.1251     band energies (ev):

    -5.5659   4.7052   6.0123   6.0126   8.8580   9.3238   9.3242  11.1315
    13.7022  13.7028  14.9180  16.9871  18.8253  18.8259  22.8169  27.6844
    27.6852  27.8670  30.5860  30.5861  32.7851  32.7852  33.6021  36.3535
    38.3557  38.3564  39.1450  41.2354  41.2361  41.9519  43.7264  43.7273

     occupation numbers 
     1.0000   1.0000   1.0000   1.0000   0.0000   0.0000   0.0000   0.0000
     0.0000   0.0000   0.0000   0.0000   0.0000   0.0000   0.0000   0.0000
     0.0000   0.0000   0.0000   0.0000   0.0000   0.0000   0.0000   0.0000
     0.0000   0.0000   0.0000   0.0000   0.0000   0.0000   0.0000   0.0000

          k =-0.3750 0.3750-0.1249     band energies (ev):

    -4.4930   1.6482   3.9396   5.5177   9.0974  10.0221  10.1920  12.6537
    12.8943  16.1139  16.5512  18.7839  20.4835  21.8447  23.0036  24.5068
    25.3998  28.0895  28.6239  29.5404  32.6709  33.2034  33.6757  36.2110
    36.2929  37.4666  37.8865  38.8552  40.0960  41.1123  41.3815  43.9132

     occupation numbers 
     1.0000   1.0000   1.0000   1.0000   0.0000   0.0000   0.0000   0.0000
     0.0000   0.0000   0.0000   0.0000   0.0000   0.0000   0.0000   0.0000
     0.0000   0.0000   0.0000   0.0000   0.0000   0.0000   0.0000   0.0000
     0.0000   0.0000   0.0000   0.0000   0.0000   0.0000   0.0000   0.0000

          k = 0.3750-0.3750 0.6251     band energies (ev):

    -3.2839  -0.5350   3.9895   4.7072   8.5328   9.8584  10.4597  13.7307
    15.3029  17.0197  17.9241  18.1729  18.9271  21.5174  24.7470  26.2402
    26.7719  27.6980  28.6089  28.9344  31.2345  32.3964  33.0797  34.2783
    34.7219  36.0964  36.6177  36.6709  39.2170  40.1390  40.5799  40.7262

     occupation numbers 
     1.0000   1.0000   1.0000   1.0000   0.0000   0.0000   0.0000   0.0000
     0.0000   0.0000   0.0000   0.0000   0.0000   0.0000   0.0000   0.0000
     0.0000   0.0000   0.0000   0.0000   0.0000   0.0000   0.0000   0.0000
     0.0000   0.0000   0.0000   0.0000   0.0000   0.0000   0.0000   0.0000

          k = 0.1250-0.1250 0.3751     band energies (ev):

    -5.0135   3.0796   4.9540   5.0470   8.4486  10.1059  10.8445  11.0939
    13.9291  14.6893  16.2586  17.8954  19.5880  20.8728  24.1420  24.5677
    25.6423  28.0888  28.2889  29.5658  32.7257  33.9133  34.9549  36.3546
    38.2201  38.7284  38.7537  39.8426  40.3352  41.1915  42.1176  42.7689

     occupation numbers 
     1.0000   1.0000   1.0000   1.0000   0.0000   0.0000   0.0000   0.0000
     0.0000   0.0000   0.0000   0.0000   0.0000   0.0000   0.0000   0.0000
     0.0000   0.0000   0.0000   0.0000   0.0000   0.0000   0.0000   0.0000
     0.0000   0.0000   0.0000   0.0000   0.0000   0.0000   0.0000   0.0000

          k =-0.1250 0.6250 0.1251     band energies (ev):

    -3.9361   1.3783   3.5648   4.0425   7.6224   9.1928  12.4047  12.6793
    16.5384  16.6000  17.9921  19.7676  20.0956  21.3116  22.3563  23.5227
    25.0545  26.3258  28.4600  30.7188  31.6732  33.0363  33.0542  33.8925
    35.5629  35.9752  37.0314  39.6565  40.2964  42.1354  42.6263  43.4961

     occupation numbers 
     1.0000   1.0000   1.0000   1.0000   0.0000   0.0000   0.0000   0.0000
     0.0000   0.0000   0.0000   0.0000   0.0000   0.0000   0.0000   0.0000
     0.0000   0.0000   0.0000   0.0000   0.0000   0.0000   0.0000   0.0000
     0.0000   0.0000   0.0000   0.0000   0.0000   0.0000   0.0000   0.0000

          k = 0.6250-0.1250 0.8751     band energies (ev):

    -2.2141  -0.6400   2.1183   3.2565   8.6792  10.5980  11.6599  13.8405
    14.8512  17.5842  18.7138  20.6738  21.8977  22.5323  23.9926  24.7689
    25.3113  25.9809  27.5445  28.3272  29.2889  30.7540  31.4966  34.1913
    34.5186  35.3591  37.2890  37.7096  38.7285  39.1309  40.8674  43.1939

     occupation numbers 
     1.0000   1.0000   1.0000   1.0000   0.0000   0.0000   0.0000   0.0000
     0.0000   0.0000   0.0000   0.0000   0.0000   0.0000   0.0000   0.0000
     0.0000   0.0000   0.0000   0.0000   0.0000   0.0000   0.0000   0.0000
     0.0000   0.0000   0.0000   0.0000   0.0000   0.0000   0.0000   0.0000

          k = 0.3750 0.1250 0.6251     band energies (ev):

    -3.4971   0.4320   2.9022   4.3254   9.1933   9.8915  11.3745  12.3339
    15.4743  16.1300  18.3735  19.4300  20.6817  21.5779  23.7514  24.7821
    25.5987  27.5478  28.4416  29.3815  30.7535  32.1692  32.5311  33.7158
    35.3589  36.2463  37.8771  38.0671  38.9548  39.9364  41.1093  42.4616

     occupation numbers 
     1.0000   1.0000   1.0000   1.0000   0.0000   0.0000   0.0000   0.0000
     0.0000   0.0000   0.0000   0.0000   0.0000   0.0000   0.0000   0.0000
     0.0000   0.0000   0.0000   0.0000   0.0000   0.0000   0.0000   0.0000
     0.0000   0.0000   0.0000   0.0000   0.0000   0.0000   0.0000   0.0000

          k =-0.1250-0.8750 0.1251     band energies (ev):

    -2.4023  -0.5276   2.7673   3.5555   7.1446   8.2487  14.7139  14.7773
    17.2049  17.3353  18.9161  19.2668  21.3471  21.5844  22.3563  25.1593
    25.2402  25.8689  27.2684  28.8871  29.1010  30.0505  30.7003  32.5697
    36.1183  36.6152  38.4451  39.1620  39.8431  41.1391  42.3536  42.5885

     occupation numbers 
     1.0000   1.0000   1.0000   1.0000   0.0000   0.0000   0.0000   0.0000
     0.0000   0.0000   0.0000   0.0000   0.0000   0.0000   0.0000   0.0000
     0.0000   0.0000   0.0000   0.0000   0.0000   0.0000   0.0000   0.0000
     0.0000   0.0000   0.0000   0.0000   0.0000   0.0000   0.0000   0.0000

          k =-0.3750 0.3750 0.3751     band energies (ev):

    -4.0352   0.2829   5.1987   5.1989   8.0507   9.7942   9.7944  14.0875
    15.0664  15.0673  16.0024  20.3298  20.3307  20.3956  23.0756  25.1033
    25.1042  29.2997  30.4146  30.5772  30.5773  33.4965  33.4975  35.0353
    35.0353  35.8771  37.6202  39.3247  39.3259  40.3731  40.3743  40.4290

     occupation numbers 
     1.0000   1.0000   1.0000   1.0000   0.0000   0.0000   0.0000   0.0000
     0.0000   0.0000   0.0000   0.0000   0.0000   0.0000   0.0000   0.0000
     0.0000   0.0000   0.0000   0.0000   0.0000   0.0000   0.0000   0.0000
     0.0000   0.0000   0.0000   0.0000   0.0000   0.0000   0.0000   0.0000

          k = 0.3750-0.3750 1.1251     band energies (ev):

    -2.7656  -0.3789   2.2060   4.3744   8.1333  11.8249  11.8713  13.3492
    14.3961  14.4404  18.9140  21.4503  21.5130  22.5418  22.9207  25.0663
    25.9841  26.4522  28.3468  28.6997  31.3623  31.7622  32.4994  32.9501
    34.2043  35.0746  36.0385  36.6880  39.9792  40.9174  41.6462  42.5151

     occupation numbers 
     1.0000   1.0000   1.0000   1.0000   0.0000   0.0000   0.0000   0.0000
     0.0000   0.0000   0.0000   0.0000   0.0000   0.0000   0.0000   0.0000
     0.0000   0.0000   0.0000   0.0000   0.0000   0.0000   0.0000   0.0000
     0.0000   0.0000   0.0000   0.0000   0.0000   0.0000   0.0000   0.0000

     highest occupied, lowest unoccupied level (ev):     6.0128    7.1444

     Writing output data file Si_shifted_nscf.save

     init_run     :      0.04s CPU      0.04s WALL (       1 calls)
     electrons    :      8.35s CPU      8.39s WALL (       1 calls)

     Called by init_run:
     wfcinit      :      0.00s CPU      0.00s WALL (       1 calls)
     potinit      :      0.00s CPU      0.00s WALL (       1 calls)

     Called by electrons:
     c_bands      :      8.34s CPU      8.39s WALL (       1 calls)
     v_of_rho     :      0.00s CPU      0.00s WALL (       1 calls)
     v_h          :      0.00s CPU      0.00s WALL (       1 calls)
     v_xc         :      0.00s CPU      0.00s WALL (       1 calls)

     Called by c_bands:
     init_us_2    :      0.00s CPU      0.00s WALL (      30 calls)
     cegterg      :      8.01s CPU      8.04s WALL (      47 calls)

     Called by sum_band:

     Called by *egterg:
     h_psi        :      3.22s CPU      3.24s WALL (     754 calls)
     g_psi        :      0.03s CPU      0.03s WALL (     677 calls)
     cdiaghg      :      3.59s CPU      3.60s WALL (     707 calls)
     cegterg:over :      0.59s CPU      0.60s WALL (     677 calls)
     cegterg:upda :      0.47s CPU      0.47s WALL (     677 calls)
     cegterg:last :      0.27s CPU      0.27s WALL (     137 calls)

     Called by h_psi:
     h_psi:vloc   :      3.08s CPU      3.10s WALL (     754 calls)
     h_psi:vnl    :      0.13s CPU      0.13s WALL (     754 calls)
     add_vuspsi   :      0.06s CPU      0.06s WALL (     754 calls)

     General routines
     calbec       :      0.07s CPU      0.07s WALL (     754 calls)
     fft          :      0.01s CPU      0.01s WALL (       3 calls)
     fftw         :      2.91s CPU      2.86s WALL (   25236 calls)
     davcio       :      0.00s CPU      0.00s WALL (      60 calls)

     Parallel routines
     fft_scatter  :      0.05s CPU      0.11s WALL (   25239 calls)

     PWSCF        :     8.60s CPU         8.66s WALL


   This run was terminated on:  10:52:59  30Jun2015            

=------------------------------------------------------------------------------=
   JOB DONE.
=------------------------------------------------------------------------------=
