
     Program PHONON v.7.0 starts on  7Apr2022 at  0:25:28 

     This program is part of the open-source Quantum ESPRESSO suite
     for quantum simulation of materials; please cite
         "P. Giannozzi et al., J. Phys.:Condens. Matter 21 395502 (2009);
         "P. Giannozzi et al., J. Phys.:Condens. Matter 29 465901 (2017);
         "P. Giannozzi et al., J. Chem. Phys. 152 154105 (2020);
          URL http://www.quantum-espresso.org", 
     in publications or presentations arising from this work. More details at
     http://www.quantum-espresso.org/quote

     Parallel version (MPI), running on     1 processors

     MPI processes distributed on     1 nodes
     1090 MiB available memory on the printing compute node when the environment starts

     Waiting for input...
     Reading input from standard input


     Dynamical matrices for q-points given in input
     (   3q-points):
       N         xq(1)         xq(2)         xq(3) 
       1   0.000000000   0.000000000   0.000000000
       2   0.000000000  -0.384900212   0.000000000
       3  -0.333333373  -0.577350378   0.000000000

     Reading xml data from directory:

     ./bn.save/

     IMPORTANT: XC functional enforced from input :
     Exchange-correlation= PZ
                           (   1   1   0   0   0   0   0)
     Any further DFT definition will be discarded
     Please, verify this is what you really want


     G-vector sticks info
     --------------------
     sticks:   dense  smooth     PW     G-vecs:    dense   smooth      PW
     Sum         313     313     91                27687    27687    4847

     Using Slab Decomposition

 ----2D----2D----2D----2D----2D----2D----2D----2D----2D----2D----2D----2D
  The code is running with the 2D cutoff
  Please refer to:
  Sohier, T., Calandra, M., & Mauri, F. (2017), 
  Density functional perturbation theory for gated two-dimensional heterostructures:
  Theoretical developments and application to flexural phonons in graphene.
  Physical Review B, 96(7), 75448. https://doi.org/10.1103/PhysRevB.96.075448
 ----2D----2D----2D----2D----2D----2D----2D----2D----2D----2D----2D----2D
     Reading collected, re-writing distributed wavefunctions
  autoval = -.6656E-01
     Irreps are as follows:

                     mode #   1
                     (  -0.00000   0.00000   ) 
                     (  -0.00000   0.00000   ) 
                     (  -1.00000  -0.00000   ) 
                     (  -0.00000  -0.00000   ) 
                     (  -0.00000  -0.00000   ) 
                     (  -0.00000  -0.00000   ) 
  autoval = 0.6317E-02
     Irreps are as follows:

                     mode #   2
                     (  -0.00000  -0.00000   ) 
                     (  -0.00000  -0.00000   ) 
                     (  -0.00000  -0.00000   ) 
                     (  -0.00000  -0.00000   ) 
                     (  -0.00000  -0.00000   ) 
                     (  -1.00000  -0.00000   ) 
  autoval = 0.1711E+01
     Irreps are as follows:

                     mode #   3
                     (  -0.00000   0.00000   ) 
                     (  -0.00000   0.00000   ) 
                     (  -0.00000   0.00000   ) 
                     (  -0.00184  -0.00000   ) 
                     (  -1.00000  -0.00000   ) 
                     (  -0.00000  -0.00000   ) 
  autoval = 0.1711E+01
     Irreps are as follows:

                     mode #   4
                     (  -0.00000   0.00000   ) 
                     (  -0.00000   0.00000   ) 
                     (  -0.00000   0.00000   ) 
                     (  -1.00000  -0.00000   ) 
                     (   0.00184   0.00000   ) 
                     (  -0.00000   0.00000   ) 
  autoval = 0.2106E+01
     Irreps are as follows:

                     mode #   5
                     (  -0.00130  -0.00000   ) 
                     (  -1.00000   0.00000   ) 
                     (  -0.00000  -0.00000   ) 
                     (  -0.00000  -0.00000   ) 
                     (  -0.00000  -0.00000   ) 
                     (  -0.00000  -0.00000   ) 
  autoval = 0.2106E+01
     Irreps are as follows:

                     mode #   6
                     (  -1.00000  -0.00000   ) 
                     (   0.00130   0.00000   ) 
                     (  -0.00000   0.00000   ) 
                     (  -0.00000   0.00000   ) 
                     (  -0.00000   0.00000   ) 
                     (  -0.00000   0.00000   ) 
  autoval = -.3745E+00
     Irreps are as follows:

                     mode #   1
                     (  -0.00000   0.00000   ) 
                     (  -0.00000   0.00000   ) 
                     (  -0.00000   0.00000   ) 
                     (  -1.00000  -0.00000   ) 
                     (  -0.00000  -0.00000   ) 
                     (  -0.00000  -0.00000   ) 
  autoval = -.6656E-01
     Irreps are as follows:

                     mode #   2
                     (  -0.00000   0.00000   ) 
                     (  -0.00000   0.00000   ) 
                     (  -1.00000  -0.00000   ) 
                     (  -0.00000  -0.00000   ) 
                     (  -0.00000  -0.00000   ) 
                     (  -0.00000  -0.00000   ) 
  autoval = 0.6317E-02
     Irreps are as follows:

                     mode #   3
                     (  -0.00000  -0.00000   ) 
                     (  -0.00000  -0.00000   ) 
                     (  -0.00000  -0.00000   ) 
                     (  -0.00000  -0.00000   ) 
                     (  -0.00000  -0.00000   ) 
                     (  -1.00000  -0.00000   ) 
  autoval = 0.9528E+00
     Irreps are as follows:

                     mode #   4
                     (   0.00000  -0.00000   ) 
                     (  -1.00000  -0.00000   ) 
                     (   0.00000  -0.00000   ) 
                     (   0.00000  -0.00000   ) 
                     (   0.00000  -0.00000   ) 
                     (   0.00000  -0.00000   ) 
  autoval = 0.3260E+01
     Irreps are as follows:

                     mode #   5
                     (  -1.00000  -0.00000   ) 
                     (  -0.00000  -0.00000   ) 
                     (  -0.00000  -0.00000   ) 
                     (  -0.00000  -0.00000   ) 
                     (  -0.00000  -0.00000   ) 
                     (  -0.00000  -0.00000   ) 
  autoval = 0.3796E+01
     Irreps are as follows:

                     mode #   6
                     (  -0.00000   0.00000   ) 
                     (  -0.00000   0.00000   ) 
                     (  -0.00000   0.00000   ) 
                     (  -0.00000   0.00000   ) 
                     (  -1.00000  -0.00000   ) 
                     (  -0.00000  -0.00000   ) 
  autoval = -.6656E-01
     Irreps are as follows:

                     mode #   1
                     (  -0.00000   0.00000   ) 
                     (  -0.00000   0.00000   ) 
                     (  -1.00000  -0.00000   ) 
                     (  -0.00000  -0.00000   ) 
                     (  -0.00000  -0.00000   ) 
                     (  -0.00000  -0.00000   ) 
  autoval = 0.6317E-02
     Irreps are as follows:

                     mode #   2
                     (  -0.00000  -0.00000   ) 
                     (  -0.00000  -0.00000   ) 
                     (  -0.00000  -0.00000   ) 
                     (  -0.00000  -0.00000   ) 
                     (  -0.00000  -0.00000   ) 
                     (  -1.00000  -0.00000   ) 
  autoval = 0.1271E+01
     Irreps are as follows:

                     mode #   3
                     (  -0.00000  -0.00000   ) 
                     (  -0.00000  -0.00000   ) 
                     (  -0.00000  -0.00000   ) 
                     (  -0.70711  -0.00000   ) 
                     (  -0.00000  -0.70711   ) 
                     (  -0.00000  -0.00000   ) 
  autoval = 0.1779E+01
     Irreps are as follows:

                     mode #   4
                     (  -0.70711   0.00000   ) 
                     (  -0.00000   0.70711   ) 
                     (  -0.00000  -0.00000   ) 
                     (  -0.00000  -0.00000   ) 
                     (  -0.00000  -0.00000   ) 
                     (  -0.00000  -0.00000   ) 
  autoval = 0.2151E+01
     Irreps are as follows:

                     mode #   5
                     (  -0.00000  -0.00000   ) 
                     (  -0.00000  -0.00000   ) 
                     (  -0.00000  -0.00000   ) 
                     (  -0.70711  -0.00000   ) 
                     (  -0.00000   0.70711   ) 
                     (  -0.00000  -0.00000   ) 
  autoval = 0.2434E+01
     Irreps are as follows:

                     mode #   6
                     (  -0.70711  -0.00000   ) 
                     (   0.00000  -0.70711   ) 
                     (  -0.00000  -0.00000   ) 
                     (  -0.00000  -0.00000   ) 
                     (  -0.00000  -0.00000   ) 
                     (  -0.00000  -0.00000   ) 

     Saving dvscf to file. Distribute only q points, not irreducible represetations.

     Calculation of q =    0.0000000   0.0000000   0.0000000

     bn_dvscf                                                                   

     bravais-lattice index     =            4
     lattice parameter (alat)  =       4.7168  a.u.
     unit-cell volume          =     578.0146 (a.u.)^3
     number of atoms/cell      =            2
     number of atomic types    =            2
     kinetic-energy cut-off    =      50.0000  Ry
     charge density cut-off    =     200.0000  Ry
     convergence threshold     =      1.0E-12
     beta                      =       0.7000
     number of iterations used =            4
     Exchange-correlation= PZ
                           (   1   1   0   0   0   0   0)


     celldm(1)=    4.71676  celldm(2)=    0.00000  celldm(3)=    6.36030
     celldm(4)=    0.00000  celldm(5)=    0.00000  celldm(6)=    0.00000

     crystal axes: (cart. coord. in units of alat)
               a(1) = (  1.0000  0.0000  0.0000 )  
               a(2) = ( -0.5000  0.8660  0.0000 )  
               a(3) = (  0.0000  0.0000  6.3603 )  

     reciprocal axes: (cart. coord. in units 2 pi/alat)
               b(1) = (  1.0000  0.5774 -0.0000 )  
               b(2) = (  0.0000  1.1547  0.0000 )  
               b(3) = (  0.0000 -0.0000  0.1572 )  


     Atoms inside the unit cell: 

     Cartesian axes

     site n.  atom      mass           positions (alat units)
        1     B   10.8110   tau(    1) = (    0.50000    0.28868    0.00000  )
        2     N   14.0060   tau(    2) = (   -0.50000   -0.28868    0.00000  )

     Computing dynamical matrix for 
                    q = (   0.0000000   0.0000000   0.0000000 )

     13 Sym.Ops. (with q -> -q+G )

                                    s                        frac. trans.

      isym =  1     identity                                     

 cryst.   s( 1) = (     1          0          0      )
                  (     0          1          0      )
                  (     0          0          1      )

 cart.    s( 1) = (  1.0000000  0.0000000  0.0000000 )
                  (  0.0000000  1.0000000  0.0000000 )
                  (  0.0000000  0.0000000  1.0000000 )


      isym =  2     inv. 180 deg rotation - cart. axis [0,0,1]   

 cryst.   s( 2) = (     1          0          0      )
                  (     0          1          0      )
                  (     0          0         -1      )

 cart.    s( 2) = (  1.0000000  0.0000000  0.0000000 )
                  (  0.0000000  1.0000000  0.0000000 )
                  (  0.0000000  0.0000000 -1.0000000 )


      isym =  3     120 deg rotation - cryst. axis [0,0,1]       

 cryst.   s( 3) = (     0          1          0      )
                  (    -1         -1          0      )
                  (     0          0          1      )

 cart.    s( 3) = ( -0.5000000 -0.8660254  0.0000000 )
                  (  0.8660254 -0.5000000  0.0000000 )
                  (  0.0000000  0.0000000  1.0000000 )


      isym =  4     120 deg rotation - cryst. axis [0,0,-1]      

 cryst.   s( 4) = (    -1         -1          0      )
                  (     1          0          0      )
                  (     0          0          1      )

 cart.    s( 4) = ( -0.5000000  0.8660254  0.0000000 )
                  ( -0.8660254 -0.5000000  0.0000000 )
                  (  0.0000000  0.0000000  1.0000000 )


      isym =  5     inv. 60 deg rotation - cryst. axis [0,0,1]   

 cryst.   s( 5) = (    -1         -1          0      )
                  (     1          0          0      )
                  (     0          0         -1      )

 cart.    s( 5) = ( -0.5000000  0.8660254  0.0000000 )
                  ( -0.8660254 -0.5000000  0.0000000 )
                  (  0.0000000  0.0000000 -1.0000000 )


      isym =  6     inv. 60 deg rotation - cryst. axis [0,0,-1]  

 cryst.   s( 6) = (     0          1          0      )
                  (    -1         -1          0      )
                  (     0          0         -1      )

 cart.    s( 6) = ( -0.5000000 -0.8660254  0.0000000 )
                  (  0.8660254 -0.5000000  0.0000000 )
                  (  0.0000000  0.0000000 -1.0000000 )


      isym =  7     180 deg rotation - cart. axis [0,1,0]        

 cryst.   s( 7) = (    -1          0          0      )
                  (     1          1          0      )
                  (     0          0         -1      )

 cart.    s( 7) = ( -1.0000000  0.0000000  0.0000000 )
                  (  0.0000000  1.0000000  0.0000000 )
                  (  0.0000000  0.0000000 -1.0000000 )


      isym =  8     inv. 180 deg rotation - cart. axis [1,0,0]   

 cryst.   s( 8) = (    -1          0          0      )
                  (     1          1          0      )
                  (     0          0          1      )

 cart.    s( 8) = ( -1.0000000  0.0000000  0.0000000 )
                  (  0.0000000  1.0000000  0.0000000 )
                  (  0.0000000  0.0000000  1.0000000 )


      isym =  9     180 deg rotation - cryst. axis [1,-1,0]      

 cryst.   s( 9) = (     0         -1          0      )
                  (    -1          0          0      )
                  (     0          0         -1      )

 cart.    s( 9) = (  0.5000000 -0.8660254  0.0000000 )
                  ( -0.8660254 -0.5000000  0.0000000 )
                  (  0.0000000  0.0000000 -1.0000000 )


      isym = 10     180 deg rotation - cryst. axis [2,1,0]       

 cryst.   s(10) = (     1          1          0      )
                  (     0         -1          0      )
                  (     0          0         -1      )

 cart.    s(10) = (  0.5000000  0.8660254  0.0000000 )
                  (  0.8660254 -0.5000000  0.0000000 )
                  (  0.0000000  0.0000000 -1.0000000 )


      isym = 11     inv. 180 deg rotation - cryst. axis [0,1,0]  

 cryst.   s(11) = (     1          1          0      )
                  (     0         -1          0      )
                  (     0          0          1      )

 cart.    s(11) = (  0.5000000  0.8660254  0.0000000 )
                  (  0.8660254 -0.5000000  0.0000000 )
                  (  0.0000000  0.0000000  1.0000000 )


      isym = 12     inv. 180 deg rotation - cryst. axis [1,1,0]  

 cryst.   s(12) = (     0         -1          0      )
                  (    -1          0          0      )
                  (     0          0          1      )

 cart.    s(12) = (  0.5000000 -0.8660254  0.0000000 )
                  ( -0.8660254 -0.5000000  0.0000000 )
                  (  0.0000000  0.0000000  1.0000000 )


     This transformation sends q -> -q+G

      isym = 13     identity                                     

 cryst.   s(13) = (     1          0          0      )
                  (     0          1          0      )
                  (     0          0          1      )

 cart.    s(13) = (  1.0000000  0.0000000  0.0000000 )
                  (  0.0000000  1.0000000  0.0000000 )
                  (  0.0000000  0.0000000  1.0000000 )


     G cutoff =  112.7086  (  27687 G-vectors)     FFT grid: ( 24, 24,135)
     number of k points=     3
                       cart. coord. in units 2pi/alat
        k(    1) = (   0.0000000   0.0000000   0.0000000), wk =   0.2222222
        k(    2) = (   0.0000000   0.3849002   0.0000000), wk =   1.3333333
        k(    3) = (   0.3333333   0.5773503   0.0000000), wk =   0.4444444

                       cryst. coord.
        k(    1) = (   0.0000000   0.0000000   0.0000000), wk =   0.2222222
        k(    2) = (   0.0000000   0.3333333   0.0000000), wk =   1.3333333
        k(    3) = (   0.3333333   0.3333333   0.0000000), wk =   0.4444444

     PseudoPot. # 1 for B  read from file:
     ../../psps/B.pz-vbc.UPF
     MD5 check sum: b59596b5d63edeea6a2b3a0beace49c5
     Pseudo is Norm-conserving, Zval =  3.0
     Generated by new atomic code, or converted to UPF format
     Using radial grid of  157 points,  1 beta functions with: 
                l(1) =   0

     PseudoPot. # 2 for N  read from file:
     ../../psps/N.pz-vbc.UPF
     MD5 check sum: f7a51f6f78412844d17f6e69b370b417
     Pseudo is Norm-conserving, Zval =  5.0
     Generated by new atomic code, or converted to UPF format
     Using radial grid of  161 points,  1 beta functions with: 
                l(1) =   0

     point group D_3h (-62m)
     there are  6 classes
     the character table:

       E     2C3   3C2   s_h   2S3   3s_v 
A'_1   1.00  1.00  1.00  1.00  1.00  1.00
A'_2   1.00  1.00 -1.00  1.00  1.00 -1.00
E'     2.00 -1.00  0.00  2.00 -1.00  0.00
A''1   1.00  1.00  1.00 -1.00 -1.00 -1.00
A''2   1.00  1.00 -1.00 -1.00 -1.00  1.00
E''    2.00 -1.00  0.00 -2.00  1.00  0.00

     the symmetry operations in each class and the name of the first element:

     E        1
                                                                 
     2C3      3    4
                                                                 
     3C2      7   10    9
                                                                 
     s_h      2
                                                                 
     2S3      5    6
                                                                 
     3s_v     8   11   12
                                                                 


     Electric field:
     Dielectric constant
     Born effective charges as d Force / d E


     Atomic displacements:
     There are    4 irreducible representations

     Representation     1      2 modes -  To be done
     Irreps are as follows:

           mode #   1                           mode #   2
           (  -0.00000   0.00000   )            (  -0.00000   0.00000   ) 
           (  -0.00000   0.00000   )            (  -0.00000   0.00000   ) 
           (  -0.00000   0.00000   )            (  -0.00000   0.00000   ) 
           (  -0.00184  -0.00000   )            (  -1.00000  -0.00000   ) 
           (  -1.00000  -0.00000   )            (   0.00184   0.00000   ) 
           (  -0.00000  -0.00000   )            (  -0.00000   0.00000   ) 

     Representation     2      2 modes -  To be done
     Irreps are as follows:

           mode #   3                           mode #   4
           (  -0.00130  -0.00000   )            (  -1.00000  -0.00000   ) 
           (  -1.00000   0.00000   )            (   0.00130   0.00000   ) 
           (  -0.00000  -0.00000   )            (  -0.00000   0.00000   ) 
           (  -0.00000  -0.00000   )            (  -0.00000   0.00000   ) 
           (  -0.00000  -0.00000   )            (  -0.00000   0.00000   ) 
           (  -0.00000  -0.00000   )            (  -0.00000   0.00000   ) 

     Representation     3      1 modes -  To be done
     Irreps are as follows:

                     mode #   5
                     (  -0.00000   0.00000   ) 
                     (  -0.00000   0.00000   ) 
                     (  -1.00000  -0.00000   ) 
                     (  -0.00000  -0.00000   ) 
                     (  -0.00000  -0.00000   ) 
                     (  -0.00000  -0.00000   ) 

     Representation     4      1 modes -  To be done
     Irreps are as follows:

                     mode #   6
                     (  -0.00000  -0.00000   ) 
                     (  -0.00000  -0.00000   ) 
                     (  -0.00000  -0.00000   ) 
                     (  -0.00000  -0.00000   ) 
                     (  -0.00000  -0.00000   ) 
                     (  -1.00000  -0.00000   ) 



     Alpha used in Ewald sum =   2.1000
     PHONON       :      0.25s CPU      0.26s WALL


     Electric Fields Calculation

      iter #   1 total cpu time :     1.8 secs   av.it.:   6.2
      thresh= 1.000E-02 alpha_mix =  0.700 |ddv_scf|^2 =  1.055E-04

      iter #   2 total cpu time :     2.4 secs   av.it.:   7.6
      thresh= 1.027E-03 alpha_mix =  0.700 |ddv_scf|^2 =  1.373E-04

      iter #   3 total cpu time :     2.8 secs   av.it.:   4.9
      thresh= 1.172E-03 alpha_mix =  0.700 |ddv_scf|^2 =  9.618E-08

      iter #   4 total cpu time :     3.4 secs   av.it.:   8.2
      thresh= 3.101E-05 alpha_mix =  0.700 |ddv_scf|^2 =  3.219E-10

      iter #   5 total cpu time :     4.0 secs   av.it.:   8.7
      thresh= 1.794E-06 alpha_mix =  0.700 |ddv_scf|^2 =  1.041E-11

      iter #   6 total cpu time :     4.6 secs   av.it.:   8.2
      thresh= 3.226E-07 alpha_mix =  0.700 |ddv_scf|^2 =  7.766E-14

     End of electric fields calculation

          Dielectric constant in cartesian axis 

          (       2.029453285       0.000000000      -0.000000000 )
          (       0.000000000       2.029453285      -0.000000000 )
          (      -0.000000000      -0.000000000       1.132021423 )

          Effective charges (d Force / dE) in cartesian axis without acoustic sum rule applied (asr)

           atom      1   B  Mean Z*:        1.99326
      Ex  (        2.87102        0.00000        0.00000 )
      Ey  (        0.00000        2.87102        0.00000 )
      Ez  (        0.00000        0.00000        0.23775 )
           atom      2   N  Mean Z*:       -2.34883
      Ex  (       -3.41977        0.00000        0.00000 )
      Ey  (        0.00000       -3.41977        0.00000 )
      Ez  (        0.00000        0.00000       -0.20695 )

          Effective charges Sum: Mean:       -0.35557
             -0.54875        0.00000        0.00000
              0.00000       -0.54875        0.00000
              0.00000        0.00000        0.03080

          Effective charges (d Force / dE) in cartesian axis with asr applied: 
           atom      1   B  Mean Z*:        2.17105
      E*x (        3.14539        0.00000        0.00000 )
      E*y (       -0.00000        3.14539        0.00000 )
      E*z (        0.00000        0.00000        0.22235 )
           atom      2   N  Mean Z*:       -2.17105
      E*x (       -3.14539       -0.00000        0.00000 )
      E*y (        0.00000       -3.14539        0.00000 )
      E*z (        0.00000        0.00000       -0.22235 )


     Representation #   1 modes #   1   2

     Self-consistent Calculation

      iter #   1 total cpu time :     5.3 secs   av.it.:   6.8
      thresh= 1.000E-02 alpha_mix =  0.700 |ddv_scf|^2 =  1.146E-07

      iter #   2 total cpu time :     5.8 secs   av.it.:  11.5
      thresh= 3.385E-05 alpha_mix =  0.700 |ddv_scf|^2 =  2.007E-10

      iter #   3 total cpu time :     6.3 secs   av.it.:  11.8
      thresh= 1.417E-06 alpha_mix =  0.700 |ddv_scf|^2 =  4.309E-12

      iter #   4 total cpu time :     6.8 secs   av.it.:  11.5
      thresh= 2.076E-07 alpha_mix =  0.700 |ddv_scf|^2 =  2.374E-14

     End of self-consistent calculation

     Convergence has been achieved 


     Representation #   2 modes #   3   4

     Self-consistent Calculation

      iter #   1 total cpu time :     7.2 secs   av.it.:   5.8
      thresh= 1.000E-02 alpha_mix =  0.700 |ddv_scf|^2 =  6.408E-09

      iter #   2 total cpu time :     7.7 secs   av.it.:  11.5
      thresh= 8.005E-06 alpha_mix =  0.700 |ddv_scf|^2 =  6.421E-11

      iter #   3 total cpu time :     8.2 secs   av.it.:  11.5
      thresh= 8.013E-07 alpha_mix =  0.700 |ddv_scf|^2 =  2.215E-12

      iter #   4 total cpu time :     8.8 secs   av.it.:  10.7
      thresh= 1.488E-07 alpha_mix =  0.700 |ddv_scf|^2 =  8.340E-14

     End of self-consistent calculation

     Convergence has been achieved 


     Representation #   3 mode #   5

     Self-consistent Calculation

      iter #   1 total cpu time :     9.0 secs   av.it.:   5.3
      thresh= 1.000E-02 alpha_mix =  0.700 |ddv_scf|^2 =  8.461E-05

      iter #   2 total cpu time :     9.2 secs   av.it.:   7.3
      thresh= 9.198E-04 alpha_mix =  0.700 |ddv_scf|^2 =  1.237E-04

      iter #   3 total cpu time :     9.4 secs   av.it.:   7.0
      thresh= 1.112E-03 alpha_mix =  0.700 |ddv_scf|^2 =  1.142E-08

      iter #   4 total cpu time :     9.6 secs   av.it.:   7.0
      thresh= 1.069E-05 alpha_mix =  0.700 |ddv_scf|^2 =  7.170E-10

      iter #   5 total cpu time :     9.8 secs   av.it.:   7.0
      thresh= 2.678E-06 alpha_mix =  0.700 |ddv_scf|^2 =  4.036E-13

     End of self-consistent calculation

     Convergence has been achieved 


     Representation #   4 mode #   6

     Self-consistent Calculation

      iter #   1 total cpu time :    10.0 secs   av.it.:   6.3
      thresh= 1.000E-02 alpha_mix =  0.700 |ddv_scf|^2 =  3.730E-04

      iter #   2 total cpu time :    10.2 secs   av.it.:   7.3
      thresh= 1.931E-03 alpha_mix =  0.700 |ddv_scf|^2 =  6.017E-04

      iter #   3 total cpu time :    10.4 secs   av.it.:   7.0
      thresh= 2.453E-03 alpha_mix =  0.700 |ddv_scf|^2 =  7.646E-07

      iter #   4 total cpu time :    10.6 secs   av.it.:   7.0
      thresh= 8.744E-05 alpha_mix =  0.700 |ddv_scf|^2 =  8.964E-10

      iter #   5 total cpu time :    10.8 secs   av.it.:   7.3
      thresh= 2.994E-06 alpha_mix =  0.700 |ddv_scf|^2 =  9.701E-13

     End of self-consistent calculation

     Convergence has been achieved 

     Number of q in the star =    1
     List of q in the star:
          1   0.000000000   0.000000000   0.000000000

          Dielectric constant in cartesian axis 

          (       2.029453285       0.000000000      -0.000000000 )
          (       0.000000000       2.029453285      -0.000000000 )
          (      -0.000000000      -0.000000000       1.132021423 )

          Effective charges (d Force / dE) in cartesian axis without acoustic sum rule applied (asr)

           atom      1   B  Mean Z*:        1.99326
      Ex  (        2.87102        0.00000        0.00000 )
      Ey  (        0.00000        2.87102        0.00000 )
      Ez  (        0.00000        0.00000        0.23775 )
           atom      2   N  Mean Z*:       -2.34883
      Ex  (       -3.41977        0.00000        0.00000 )
      Ey  (        0.00000       -3.41977        0.00000 )
      Ez  (        0.00000        0.00000       -0.20695 )

          Effective charges Sum: Mean:       -0.35557
             -0.54875        0.00000        0.00000
              0.00000       -0.54875        0.00000
              0.00000        0.00000        0.03080

          Effective charges (d Force / dE) in cartesian axis with asr applied: 
           atom      1   B  Mean Z*:        2.17105
      E*x (        3.14539        0.00000        0.00000 )
      E*y (       -0.00000        3.14539        0.00000 )
      E*z (        0.00000        0.00000        0.22235 )
           atom      2   N  Mean Z*:       -2.17105
      E*x (       -3.14539       -0.00000        0.00000 )
      E*y (        0.00000       -3.14539        0.00000 )
      E*z (        0.00000        0.00000       -0.22235 )

     Diagonalizing the dynamical matrix

     q = (    0.000000000   0.000000000   0.000000000 ) 

 **************************************************************************
     freq (    1) =       1.373850 [THz] =      45.826695 [cm-1]
     freq (    2) =       1.373850 [THz] =      45.826695 [cm-1]
     freq (    3) =       2.054759 [THz] =      68.539382 [cm-1]
     freq (    4) =      24.682576 [THz] =     823.322116 [cm-1]
     freq (    5) =      42.042860 [THz] =    1402.398847 [cm-1]
     freq (    6) =      42.042860 [THz] =    1402.398847 [cm-1]
 **************************************************************************

     Mode symmetry, D_3h (-62m) point group:

     freq (   1-   2) =         45.8  [cm-1]   --> E'              I+R
     freq (   3-   3) =         68.5  [cm-1]   --> A''2            I  
     freq (   4-   4) =        823.3  [cm-1]   --> A''2            I  
     freq (   5-   6) =       1402.4  [cm-1]   --> E'              I+R

     Calculation of q =    0.0000000  -0.3849002   0.0000000
     Subspace diagonalization in iterative solution of the eigenvalue problem:
     a serial algorithm will be used


     G-vector sticks info
     --------------------
     sticks:   dense  smooth     PW     G-vecs:    dense   smooth      PW
     Sum         313     313     97                27687    27687    5129

     Using Slab Decomposition


     Title: 
     bn_dvscf                                                                   


     bravais-lattice index     =            4
     lattice parameter (alat)  =       4.7168  a.u.
     unit-cell volume          =     578.0146 (a.u.)^3
     number of atoms/cell      =            2
     number of atomic types    =            2
     number of electrons       =         8.00
     number of Kohn-Sham states=            8
     kinetic-energy cutoff     =      50.0000  Ry
     charge density cutoff     =     200.0000  Ry
     Exchange-correlation= PZ
                           (   1   1   0   0   0   0   0)

     celldm(1)=   4.716756  celldm(2)=   0.000000  celldm(3)=   6.360303
     celldm(4)=   0.000000  celldm(5)=   0.000000  celldm(6)=   0.000000

     crystal axes: (cart. coord. in units of alat)
               a(1) = (   1.000000   0.000000   0.000000 )  
               a(2) = (  -0.500000   0.866025   0.000000 )  
               a(3) = (   0.000000   0.000000   6.360303 )  

     reciprocal axes: (cart. coord. in units 2 pi/alat)
               b(1) = (  1.000000  0.577350 -0.000000 )  
               b(2) = (  0.000000  1.154701  0.000000 )  
               b(3) = (  0.000000 -0.000000  0.157225 )  


     PseudoPot. # 1 for B  read from file:
     ../../psps/B.pz-vbc.UPF
     MD5 check sum: b59596b5d63edeea6a2b3a0beace49c5
     Pseudo is Norm-conserving, Zval =  3.0
     Generated by new atomic code, or converted to UPF format
     Using radial grid of  157 points,  1 beta functions with: 
                l(1) =   0

     PseudoPot. # 2 for N  read from file:
     ../../psps/N.pz-vbc.UPF
     MD5 check sum: f7a51f6f78412844d17f6e69b370b417
     Pseudo is Norm-conserving, Zval =  5.0
     Generated by new atomic code, or converted to UPF format
     Using radial grid of  161 points,  1 beta functions with: 
                l(1) =   0

     atomic species   valence    mass     pseudopotential
        B              3.00    10.81100     B ( 1.00)
        N              5.00    14.00600     N ( 1.00)

     12 Sym. Ops. (no inversion) found


                                    s                        frac. trans.

      isym =  1     identity                                     

 cryst.   s( 1) = (     1          0          0      )
                  (     0          1          0      )
                  (     0          0          1      )

 cart.    s( 1) = (  1.0000000  0.0000000  0.0000000 )
                  (  0.0000000  1.0000000  0.0000000 )
                  (  0.0000000  0.0000000  1.0000000 )


      isym =  2     inv. 180 deg rotation - cart. axis [0,0,1]   

 cryst.   s( 2) = (     1          0          0      )
                  (     0          1          0      )
                  (     0          0         -1      )

 cart.    s( 2) = (  1.0000000  0.0000000  0.0000000 )
                  (  0.0000000  1.0000000  0.0000000 )
                  (  0.0000000  0.0000000 -1.0000000 )


      isym =  3     180 deg rotation - cart. axis [0,1,0]        

 cryst.   s( 3) = (    -1          0          0      )
                  (     1          1          0      )
                  (     0          0         -1      )

 cart.    s( 3) = ( -1.0000000  0.0000000  0.0000000 )
                  (  0.0000000  1.0000000  0.0000000 )
                  (  0.0000000  0.0000000 -1.0000000 )


      isym =  4     inv. 180 deg rotation - cart. axis [1,0,0]   

 cryst.   s( 4) = (    -1          0          0      )
                  (     1          1          0      )
                  (     0          0          1      )

 cart.    s( 4) = ( -1.0000000  0.0000000  0.0000000 )
                  (  0.0000000  1.0000000  0.0000000 )
                  (  0.0000000  0.0000000  1.0000000 )


      isym =  5     inv. 60 deg rotation - cryst. axis [0,0,1]   

 cryst.   s( 5) = (    -1         -1          0      )
                  (     1          0          0      )
                  (     0          0         -1      )

 cart.    s( 5) = ( -0.5000000  0.8660254  0.0000000 )
                  ( -0.8660254 -0.5000000  0.0000000 )
                  (  0.0000000  0.0000000 -1.0000000 )


      isym =  6     inv. 60 deg rotation - cryst. axis [0,0,-1]  

 cryst.   s( 6) = (     0          1          0      )
                  (    -1         -1          0      )
                  (     0          0         -1      )

 cart.    s( 6) = ( -0.5000000 -0.8660254  0.0000000 )
                  (  0.8660254 -0.5000000  0.0000000 )
                  (  0.0000000  0.0000000 -1.0000000 )


      isym =  7     120 deg rotation - cryst. axis [0,0,1]       

 cryst.   s( 7) = (     0          1          0      )
                  (    -1         -1          0      )
                  (     0          0          1      )

 cart.    s( 7) = ( -0.5000000 -0.8660254  0.0000000 )
                  (  0.8660254 -0.5000000  0.0000000 )
                  (  0.0000000  0.0000000  1.0000000 )


      isym =  8     120 deg rotation - cryst. axis [0,0,-1]      

 cryst.   s( 8) = (    -1         -1          0      )
                  (     1          0          0      )
                  (     0          0          1      )

 cart.    s( 8) = ( -0.5000000  0.8660254  0.0000000 )
                  ( -0.8660254 -0.5000000  0.0000000 )
                  (  0.0000000  0.0000000  1.0000000 )


      isym =  9     180 deg rotation - cryst. axis [1,-1,0]      

 cryst.   s( 9) = (     0         -1          0      )
                  (    -1          0          0      )
                  (     0          0         -1      )

 cart.    s( 9) = (  0.5000000 -0.8660254  0.0000000 )
                  ( -0.8660254 -0.5000000  0.0000000 )
                  (  0.0000000  0.0000000 -1.0000000 )


      isym = 10     180 deg rotation - cryst. axis [2,1,0]       

 cryst.   s(10) = (     1          1          0      )
                  (     0         -1          0      )
                  (     0          0         -1      )

 cart.    s(10) = (  0.5000000  0.8660254  0.0000000 )
                  (  0.8660254 -0.5000000  0.0000000 )
                  (  0.0000000  0.0000000 -1.0000000 )


      isym = 11     inv. 180 deg rotation - cryst. axis [0,1,0]  

 cryst.   s(11) = (     1          1          0      )
                  (     0         -1          0      )
                  (     0          0          1      )

 cart.    s(11) = (  0.5000000  0.8660254  0.0000000 )
                  (  0.8660254 -0.5000000  0.0000000 )
                  (  0.0000000  0.0000000  1.0000000 )


      isym = 12     inv. 180 deg rotation - cryst. axis [1,1,0]  

 cryst.   s(12) = (     0         -1          0      )
                  (    -1          0          0      )
                  (     0          0          1      )

 cart.    s(12) = (  0.5000000 -0.8660254  0.0000000 )
                  ( -0.8660254 -0.5000000  0.0000000 )
                  (  0.0000000  0.0000000  1.0000000 )


     point group D_3h (-62m)
     there are  6 classes
     the character table:

       E     2C3   3C2   s_h   2S3   3s_v 
A'_1   1.00  1.00  1.00  1.00  1.00  1.00
A'_2   1.00  1.00 -1.00  1.00  1.00 -1.00
E'     2.00 -1.00  0.00  2.00 -1.00  0.00
A''1   1.00  1.00  1.00 -1.00 -1.00 -1.00
A''2   1.00  1.00 -1.00 -1.00 -1.00  1.00
E''    2.00 -1.00  0.00 -2.00  1.00  0.00

     the symmetry operations in each class and the name of the first element:

     E        1
          identity                                               
     2C3      7    8
          120 deg rotation - cryst. axis [0,0,1]                 
     3C2      3    9   10
          180 deg rotation - cart. axis [0,1,0]                  
     s_h      2
          inv. 180 deg rotation - cart. axis [0,0,1]             
     2S3      5    6
          inv. 60 deg rotation - cryst. axis [0,0,1]             
     3s_v     4   12   11
          inv. 180 deg rotation - cart. axis [1,0,0]             

   Cartesian axes

     site n.     atom                  positions (alat units)
         1           B   tau(   1) = (   0.5000000   0.2886751   0.0000000  )
         2           N   tau(   2) = (  -0.5000000  -0.2886751   0.0000000  )

   Crystallographic axes

     site n.     atom                  positions (cryst. coord.)
         1           B   tau(   1) = (  0.6666667  0.3333333  0.0000000  )
         2           N   tau(   2) = ( -0.6666667 -0.3333333  0.0000000  )

     number of k points=    12
                       cart. coord. in units 2pi/alat
        k(    1) = (   0.0000000   0.0000000   0.0000000), wk =   0.2222222
        k(    2) = (   0.0000000  -0.3849002   0.0000000), wk =   0.0000000
        k(    3) = (   0.0000000   0.3849002   0.0000000), wk =   0.2222222
        k(    4) = (   0.0000000  -0.0000000   0.0000000), wk =   0.0000000
        k(    5) = (   0.3333333   0.5773503   0.0000000), wk =   0.4444444
        k(    6) = (   0.3333333   0.1924501   0.0000000), wk =   0.0000000
        k(    7) = (   0.3333333  -0.1924501   0.0000000), wk =   0.4444444
        k(    8) = (   0.3333333  -0.5773503   0.0000000), wk =   0.0000000
        k(    9) = (   0.0000000  -0.3849002   0.0000000), wk =   0.2222222
        k(   10) = (   0.0000000  -0.7698004   0.0000000), wk =   0.0000000
        k(   11) = (  -0.3333333   0.1924501   0.0000000), wk =   0.4444444
        k(   12) = (  -0.3333333  -0.1924501   0.0000000), wk =   0.0000000

                       cryst. coord.
        k(    1) = (   0.0000000   0.0000000   0.0000000), wk =   0.2222222
        k(    2) = (   0.0000000  -0.3333334   0.0000000), wk =   0.0000000
        k(    3) = (   0.0000000   0.3333333   0.0000000), wk =   0.2222222
        k(    4) = (   0.0000000  -0.0000000   0.0000000), wk =   0.0000000
        k(    5) = (   0.3333333   0.3333333   0.0000000), wk =   0.4444444
        k(    6) = (   0.3333333  -0.0000000   0.0000000), wk =   0.0000000
        k(    7) = (   0.3333333  -0.3333333   0.0000000), wk =   0.4444444
        k(    8) = (   0.3333333  -0.6666667   0.0000000), wk =   0.0000000
        k(    9) = (   0.0000000  -0.3333333   0.0000000), wk =   0.2222222
        k(   10) = (   0.0000000  -0.6666667   0.0000000), wk =   0.0000000
        k(   11) = (  -0.3333333   0.3333333   0.0000000), wk =   0.4444444
        k(   12) = (  -0.3333333  -0.0000000   0.0000000), wk =   0.0000000

     Dense  grid:    27687 G-vectors     FFT dimensions: (  24,  24, 135)

     Dynamical RAM for                 wfc:       0.42 MB

     Dynamical RAM for     wfc (w. buffer):       0.42 MB

     Dynamical RAM for           str. fact:       0.84 MB

     Dynamical RAM for           local pot:       0.02 MB

     Dynamical RAM for          nlocal pot:       0.11 MB

     Dynamical RAM for                qrad:       0.02 MB

     Dynamical RAM for          rho,v,vnew:       3.05 MB

     Dynamical RAM for           G-vectors:       1.80 MB

     Dynamical RAM for          h,s,v(r/c):       0.05 MB

     Dynamical RAM for          <psi|beta>:       0.00 MB

     Dynamical RAM for                 psi:       1.69 MB

     Dynamical RAM for                hpsi:       1.69 MB

     Dynamical RAM for      wfcinit/wfcrot:       0.84 MB

     Estimated static dynamical RAM per process >      10.50 MB

     Estimated max dynamical RAM per process >      13.91 MB
 ----2D----2D----2D----2D----2D----2D----2D----2D----2D----2D----2D----2D
  The code is running with the 2D cutoff
  Please refer to:
  Sohier, T., Calandra, M., & Mauri, F. (2017), 
  Density functional perturbation theory for gated two-dimensional heterostructures:
  Theoretical developments and application to flexural phonons in graphene.
  Physical Review B, 96(7), 75448. https://doi.org/10.1103/PhysRevB.96.075448
 ----2D----2D----2D----2D----2D----2D----2D----2D----2D----2D----2D----2D

     The potential is recalculated from file :
     ./_ph0/bn.save/charge-density

     Starting wfcs are    8 atomic wfcs

     Band Structure Calculation
     Davidson diagonalization with overlap

     Computing kpt #:     1
     total cpu time spent up to now is        0.2 secs

     Computing kpt #:     2
     total cpu time spent up to now is        0.4 secs

     Computing kpt #:     3
     total cpu time spent up to now is        0.6 secs

     Computing kpt #:     4
     total cpu time spent up to now is        0.8 secs

     Computing kpt #:     5
     total cpu time spent up to now is        1.0 secs

     Computing kpt #:     6
     total cpu time spent up to now is        1.2 secs

     Computing kpt #:     7
     total cpu time spent up to now is        1.4 secs

     Computing kpt #:     8
     total cpu time spent up to now is        1.6 secs

     Computing kpt #:     9
     total cpu time spent up to now is        1.8 secs

     Computing kpt #:    10
     total cpu time spent up to now is        2.0 secs

     Computing kpt #:    11
     total cpu time spent up to now is        2.3 secs

     Computing kpt #:    12
     total cpu time spent up to now is        2.5 secs

     ethr =  1.25E-10,  avg # of iterations = 20.5

     total cpu time spent up to now is        2.5 secs

     End of band structure calculation

          k = 0.0000 0.0000 0.0000 (  3439 PWs)   bands (ev):

   -23.8293 -11.4720  -7.4058  -7.4058  -1.3437  -0.1736   1.1693   2.0178

     occupation numbers 
     1.0000   1.0000   1.0000   1.0000   0.0000   0.0000   0.0000   0.0000

          k = 0.0000-0.3849 0.0000 (  3453 PWs)   bands (ev):

   -21.8756 -12.9939  -9.7277  -8.7509   0.9542   2.0039   3.6092   4.1907

     occupation numbers 
     0.0000   0.0000   0.0000   0.0000   0.0000   0.0000   0.0000   0.0000

          k = 0.0000 0.3849 0.0000 (  3453 PWs)   bands (ev):

   -21.8756 -12.9939  -9.7277  -8.7509   0.9542   2.0039   3.6092   4.1907

     occupation numbers 
     1.0000   1.0000   1.0000   1.0000   0.0000   0.0000   0.0000   0.0000

          k = 0.0000-0.0000 0.0000 (  3439 PWs)   bands (ev):

   -23.8293 -11.4720  -7.4058  -7.4058  -1.3437  -0.1736   1.1693   2.0178

     occupation numbers 
     0.0000   0.0000   0.0000   0.0000   0.0000   0.0000   0.0000   0.0000

          k = 0.3333 0.5774 0.0000 (  3459 PWs)   bands (ev):

   -20.1232 -14.1881 -13.2063  -6.0199  -1.5502   7.3513   8.4684   9.2047

     occupation numbers 
     1.0000   1.0000   1.0000   1.0000   0.0000   0.0000   0.0000   0.0000

          k = 0.3333 0.1925 0.0000 (  3453 PWs)   bands (ev):

   -21.8756 -12.9939  -9.7277  -8.7509   0.9542   2.0039   3.6092   4.1907

     occupation numbers 
     0.0000   0.0000   0.0000   0.0000   0.0000   0.0000   0.0000   0.0000

          k = 0.3333-0.1925 0.0000 (  3453 PWs)   bands (ev):

   -21.8756 -12.9939  -9.7277  -8.7509   0.9542   2.0039   3.6092   4.1907

     occupation numbers 
     1.0000   1.0000   1.0000   1.0000   0.0000   0.0000   0.0000   0.0000

          k = 0.3333-0.5774 0.0000 (  3459 PWs)   bands (ev):

   -20.1232 -14.1881 -13.2063  -6.0199  -1.5502   7.3513   8.4684   9.2047

     occupation numbers 
     0.0000   0.0000   0.0000   0.0000   0.0000   0.0000   0.0000   0.0000

          k = 0.0000-0.3849 0.0000 (  3453 PWs)   bands (ev):

   -21.8756 -12.9939  -9.7277  -8.7509   0.9542   2.0039   3.6092   4.1907

     occupation numbers 
     1.0000   1.0000   1.0000   1.0000   0.0000   0.0000   0.0000   0.0000

          k = 0.0000-0.7698 0.0000 (  3453 PWs)   bands (ev):

   -21.8756 -12.9939  -9.7277  -8.7509   0.9542   2.0039   3.6092   4.1907

     occupation numbers 
     0.0000   0.0000   0.0000   0.0000   0.0000   0.0000   0.0000   0.0000

          k =-0.3333 0.1925 0.0000 (  3453 PWs)   bands (ev):

   -21.8756 -12.9939  -9.7277  -8.7509   0.9542   2.0039   3.6092   4.1907

     occupation numbers 
     1.0000   1.0000   1.0000   1.0000   0.0000   0.0000   0.0000   0.0000

          k =-0.3333-0.1925 0.0000 (  3453 PWs)   bands (ev):

   -21.8756 -12.9939  -9.7277  -8.7509   0.9542   2.0039   3.6092   4.1907

     occupation numbers 
     0.0000   0.0000   0.0000   0.0000   0.0000   0.0000   0.0000   0.0000

     highest occupied, lowest unoccupied level (ev):    -6.0199   -1.5502

     Writing config to output data dir ./_ph0/bn.save/

     bn_dvscf                                                                   

     bravais-lattice index     =            4
     lattice parameter (alat)  =       4.7168  a.u.
     unit-cell volume          =     578.0146 (a.u.)^3
     number of atoms/cell      =            2
     number of atomic types    =            2
     kinetic-energy cut-off    =      50.0000  Ry
     charge density cut-off    =     200.0000  Ry
     convergence threshold     =      1.0E-12
     beta                      =       0.7000
     number of iterations used =            4
     Exchange-correlation= PZ
                           (   1   1   0   0   0   0   0)


     celldm(1)=    4.71676  celldm(2)=    0.00000  celldm(3)=    6.36030
     celldm(4)=    0.00000  celldm(5)=    0.00000  celldm(6)=    0.00000

     crystal axes: (cart. coord. in units of alat)
               a(1) = (  1.0000  0.0000  0.0000 )  
               a(2) = ( -0.5000  0.8660  0.0000 )  
               a(3) = (  0.0000  0.0000  6.3603 )  

     reciprocal axes: (cart. coord. in units 2 pi/alat)
               b(1) = (  1.0000  0.5774 -0.0000 )  
               b(2) = (  0.0000  1.1547  0.0000 )  
               b(3) = (  0.0000 -0.0000  0.1572 )  


     Atoms inside the unit cell: 

     Cartesian axes

     site n.  atom      mass           positions (alat units)
        1     B   10.8110   tau(    1) = (    0.50000    0.28868    0.00000  )
        2     N   14.0060   tau(    2) = (   -0.50000   -0.28868    0.00000  )

     Computing dynamical matrix for 
                    q = (   0.0000000  -0.3849002   0.0000000 )

      4 Sym.Ops. (no q -> -q+G )

                                    s                        frac. trans.

      isym =  1     identity                                     

 cryst.   s( 1) = (     1          0          0      )
                  (     0          1          0      )
                  (     0          0          1      )

 cart.    s( 1) = (  1.0000000  0.0000000  0.0000000 )
                  (  0.0000000  1.0000000  0.0000000 )
                  (  0.0000000  0.0000000  1.0000000 )


      isym =  2     inv. 180 deg rotation - cart. axis [0,0,1]   

 cryst.   s( 2) = (     1          0          0      )
                  (     0          1          0      )
                  (     0          0         -1      )

 cart.    s( 2) = (  1.0000000  0.0000000  0.0000000 )
                  (  0.0000000  1.0000000  0.0000000 )
                  (  0.0000000  0.0000000 -1.0000000 )


      isym =  3     180 deg rotation - cart. axis [0,1,0]        

 cryst.   s( 3) = (    -1          0          0      )
                  (     1          1          0      )
                  (     0          0         -1      )

 cart.    s( 3) = ( -1.0000000  0.0000000  0.0000000 )
                  (  0.0000000  1.0000000  0.0000000 )
                  (  0.0000000  0.0000000 -1.0000000 )


      isym =  4     inv. 180 deg rotation - cart. axis [1,0,0]   

 cryst.   s( 4) = (    -1          0          0      )
                  (     1          1          0      )
                  (     0          0          1      )

 cart.    s( 4) = ( -1.0000000  0.0000000  0.0000000 )
                  (  0.0000000  1.0000000  0.0000000 )
                  (  0.0000000  0.0000000  1.0000000 )


     G cutoff =  112.7086  (  27687 G-vectors)     FFT grid: ( 24, 24,135)
     number of k points=    12
                       cart. coord. in units 2pi/alat
        k(    1) = (   0.0000000   0.0000000   0.0000000), wk =   0.2222222
        k(    2) = (   0.0000000  -0.3849002   0.0000000), wk =   0.0000000
        k(    3) = (   0.0000000   0.3849002   0.0000000), wk =   0.2222222
        k(    4) = (   0.0000000  -0.0000000   0.0000000), wk =   0.0000000
        k(    5) = (   0.3333333   0.5773503   0.0000000), wk =   0.4444444
        k(    6) = (   0.3333333   0.1924501   0.0000000), wk =   0.0000000
        k(    7) = (   0.3333333  -0.1924501   0.0000000), wk =   0.4444444
        k(    8) = (   0.3333333  -0.5773503   0.0000000), wk =   0.0000000
        k(    9) = (   0.0000000  -0.3849002   0.0000000), wk =   0.2222222
        k(   10) = (   0.0000000  -0.7698004   0.0000000), wk =   0.0000000
        k(   11) = (  -0.3333333   0.1924501   0.0000000), wk =   0.4444444
        k(   12) = (  -0.3333333  -0.1924501   0.0000000), wk =   0.0000000

                       cryst. coord.
        k(    1) = (   0.0000000   0.0000000   0.0000000), wk =   0.2222222
        k(    2) = (   0.0000000  -0.3333334   0.0000000), wk =   0.0000000
        k(    3) = (   0.0000000   0.3333333   0.0000000), wk =   0.2222222
        k(    4) = (   0.0000000  -0.0000000   0.0000000), wk =   0.0000000
        k(    5) = (   0.3333333   0.3333333   0.0000000), wk =   0.4444444
        k(    6) = (   0.3333333  -0.0000000   0.0000000), wk =   0.0000000
        k(    7) = (   0.3333333  -0.3333333   0.0000000), wk =   0.4444444
        k(    8) = (   0.3333333  -0.6666667   0.0000000), wk =   0.0000000
        k(    9) = (   0.0000000  -0.3333333   0.0000000), wk =   0.2222222
        k(   10) = (   0.0000000  -0.6666667   0.0000000), wk =   0.0000000
        k(   11) = (  -0.3333333   0.3333333   0.0000000), wk =   0.4444444
        k(   12) = (  -0.3333333  -0.0000000   0.0000000), wk =   0.0000000

     PseudoPot. # 1 for B  read from file:
     ../../psps/B.pz-vbc.UPF
     MD5 check sum: b59596b5d63edeea6a2b3a0beace49c5
     Pseudo is Norm-conserving, Zval =  3.0
     Generated by new atomic code, or converted to UPF format
     Using radial grid of  157 points,  1 beta functions with: 
                l(1) =   0

     PseudoPot. # 2 for N  read from file:
     ../../psps/N.pz-vbc.UPF
     MD5 check sum: f7a51f6f78412844d17f6e69b370b417
     Pseudo is Norm-conserving, Zval =  5.0
     Generated by new atomic code, or converted to UPF format
     Using radial grid of  161 points,  1 beta functions with: 
                l(1) =   0

     point group C_2v (mm2) 
     there are  4 classes
     the character table:

       E     C2    s_v   s_v' 
A_1    1.00  1.00  1.00  1.00
A_2    1.00  1.00 -1.00 -1.00
B_1    1.00 -1.00  1.00 -1.00
B_2    1.00 -1.00 -1.00  1.00

     the symmetry operations in each class and the name of the first element:

     E        1
          identity                                               
     C2       3
          180 deg rotation - cart. axis [0,1,0]                  
     s_v      2
          inv. 180 deg rotation - cart. axis [0,0,1]             
     s_v'     4
          inv. 180 deg rotation - cart. axis [1,0,0]             


     Electric field:
     Dielectric constant
     Born effective charges as d Force / d E


     Atomic displacements:
     There are    6 irreducible representations

     Representation     1      1 modes -  To be done
     Irreps are as follows:

                     mode #   1
                     (   0.00000  -0.00000   ) 
                     (  -1.00000  -0.00000   ) 
                     (   0.00000  -0.00000   ) 
                     (   0.00000  -0.00000   ) 
                     (   0.00000  -0.00000   ) 
                     (   0.00000  -0.00000   ) 

     Representation     2      1 modes -  To be done
     Irreps are as follows:

                     mode #   2
                     (  -0.00000   0.00000   ) 
                     (  -0.00000   0.00000   ) 
                     (  -0.00000   0.00000   ) 
                     (  -0.00000   0.00000   ) 
                     (  -1.00000  -0.00000   ) 
                     (  -0.00000  -0.00000   ) 

     Representation     3      1 modes -  To be done
     Irreps are as follows:

                     mode #   3
                     (  -0.00000   0.00000   ) 
                     (  -0.00000   0.00000   ) 
                     (  -0.00000   0.00000   ) 
                     (  -1.00000  -0.00000   ) 
                     (  -0.00000  -0.00000   ) 
                     (  -0.00000  -0.00000   ) 

     Representation     4      1 modes -  To be done
     Irreps are as follows:

                     mode #   4
                     (  -1.00000  -0.00000   ) 
                     (  -0.00000  -0.00000   ) 
                     (  -0.00000  -0.00000   ) 
                     (  -0.00000  -0.00000   ) 
                     (  -0.00000  -0.00000   ) 
                     (  -0.00000  -0.00000   ) 

     Representation     5      1 modes -  To be done
     Irreps are as follows:

                     mode #   5
                     (  -0.00000   0.00000   ) 
                     (  -0.00000   0.00000   ) 
                     (  -1.00000  -0.00000   ) 
                     (  -0.00000  -0.00000   ) 
                     (  -0.00000  -0.00000   ) 
                     (  -0.00000  -0.00000   ) 

     Representation     6      1 modes -  To be done
     Irreps are as follows:

                     mode #   6
                     (  -0.00000  -0.00000   ) 
                     (  -0.00000  -0.00000   ) 
                     (  -0.00000  -0.00000   ) 
                     (  -0.00000  -0.00000   ) 
                     (  -0.00000  -0.00000   ) 
                     (  -1.00000  -0.00000   ) 



     Alpha used in Ewald sum =   2.1000
     PHONON       :     13.00s CPU     13.39s WALL


          Dielectric constant in cartesian axis 

          (       2.029453285       0.000000000      -0.000000000 )
          (       0.000000000       2.029453285      -0.000000000 )
          (      -0.000000000      -0.000000000       1.132021423 )

          Effective charges (d Force / dE) in cartesian axis without acoustic sum rule applied (asr)

           atom      1   B  Mean Z*:        0.73316
      Ex  (        0.00000        0.00000        0.00000 )
      Ey  (        0.00000        0.00000        0.00000 )
      Ez  (        0.00000        0.00000        2.19948 )
           atom      2   N  Mean Z*:        0.59273
      Ex  (        0.00000        0.00000        0.00000 )
      Ey  (            NaN        0.00000        0.00000 )
      Ez  (        0.00000        0.00000        1.77818 )

          Effective charges Sum: Mean:        1.32589
              0.00000            NaN        0.00000
              0.00000        0.00000        0.00000
              0.00000        0.00000        3.97766

          Effective charges (d Force / dE) in cartesian axis with asr applied: 
           atom      1   B  Mean Z*:        0.07022
      E*x (        0.00000        0.00000        0.00000 )
      E*y (            NaN        0.00000       -0.00000 )
      E*z (        0.00000        0.00000        0.21065 )
           atom      2   N  Mean Z*:       -0.07022
      E*x (       -0.00000        0.00000        0.00000 )
      E*y (            NaN        0.00000        0.00000 )
      E*z (        0.00000        0.00000       -0.21065 )


     Representation #   1 mode #   1

     Self-consistent Calculation

      iter #   1 total cpu time :    13.8 secs   av.it.:   6.7
      thresh= 1.000E-02 alpha_mix =  0.700 |ddv_scf|^2 =  2.789E-06

      iter #   2 total cpu time :    14.3 secs   av.it.:  10.8
      thresh= 1.670E-04 alpha_mix =  0.700 |ddv_scf|^2 =  3.919E-06

      iter #   3 total cpu time :    14.7 secs   av.it.:  10.0
      thresh= 1.980E-04 alpha_mix =  0.700 |ddv_scf|^2 =  1.304E-08

      iter #   4 total cpu time :    15.2 secs   av.it.:  10.3
      thresh= 1.142E-05 alpha_mix =  0.700 |ddv_scf|^2 =  7.976E-10

      iter #   5 total cpu time :    15.7 secs   av.it.:  10.7
      thresh= 2.824E-06 alpha_mix =  0.700 |ddv_scf|^2 =  2.525E-12

      iter #   6 total cpu time :    16.2 secs   av.it.:  10.7
      thresh= 1.589E-07 alpha_mix =  0.700 |ddv_scf|^2 =  3.630E-14

     End of self-consistent calculation

     Convergence has been achieved 


     Representation #   2 mode #   2

     Self-consistent Calculation

      iter #   1 total cpu time :    16.6 secs   av.it.:   7.3
      thresh= 1.000E-02 alpha_mix =  0.700 |ddv_scf|^2 =  1.884E-05

      iter #   2 total cpu time :    17.0 secs   av.it.:  10.5
      thresh= 4.341E-04 alpha_mix =  0.700 |ddv_scf|^2 =  2.209E-05

      iter #   3 total cpu time :    17.5 secs   av.it.:   9.7
      thresh= 4.700E-04 alpha_mix =  0.700 |ddv_scf|^2 =  8.533E-08

      iter #   4 total cpu time :    18.0 secs   av.it.:  10.8
      thresh= 2.921E-05 alpha_mix =  0.700 |ddv_scf|^2 =  7.026E-09

      iter #   5 total cpu time :    18.5 secs   av.it.:  10.2
      thresh= 8.382E-06 alpha_mix =  0.700 |ddv_scf|^2 =  2.489E-11

      iter #   6 total cpu time :    18.9 secs   av.it.:  10.0
      thresh= 4.989E-07 alpha_mix =  0.700 |ddv_scf|^2 =  1.973E-13

     End of self-consistent calculation

     Convergence has been achieved 


     Representation #   3 mode #   3

     Self-consistent Calculation

      iter #   1 total cpu time :    19.3 secs   av.it.:   6.7
      thresh= 1.000E-02 alpha_mix =  0.700 |ddv_scf|^2 =  6.546E-07

      iter #   2 total cpu time :    19.8 secs   av.it.:  10.7
      thresh= 8.091E-05 alpha_mix =  0.700 |ddv_scf|^2 =  4.184E-09

      iter #   3 total cpu time :    20.3 secs   av.it.:  10.7
      thresh= 6.468E-06 alpha_mix =  0.700 |ddv_scf|^2 =  1.930E-11

      iter #   4 total cpu time :    20.7 secs   av.it.:  10.2
      thresh= 4.393E-07 alpha_mix =  0.700 |ddv_scf|^2 =  1.176E-13

     End of self-consistent calculation

     Convergence has been achieved 


     Representation #   4 mode #   4

     Self-consistent Calculation

      iter #   1 total cpu time :    21.1 secs   av.it.:   5.7
      thresh= 1.000E-02 alpha_mix =  0.700 |ddv_scf|^2 =  5.421E-08

      iter #   2 total cpu time :    21.6 secs   av.it.:  10.7
      thresh= 2.328E-05 alpha_mix =  0.700 |ddv_scf|^2 =  3.706E-10

      iter #   3 total cpu time :    22.1 secs   av.it.:  10.5
      thresh= 1.925E-06 alpha_mix =  0.700 |ddv_scf|^2 =  1.434E-11

      iter #   4 total cpu time :    22.5 secs   av.it.:  10.2
      thresh= 3.787E-07 alpha_mix =  0.700 |ddv_scf|^2 =  1.936E-13

     End of self-consistent calculation

     Convergence has been achieved 


     Representation #   5 mode #   5

     Self-consistent Calculation

      iter #   1 total cpu time :    22.9 secs   av.it.:   6.2
      thresh= 1.000E-02 alpha_mix =  0.700 |ddv_scf|^2 =  2.093E-07

      iter #   2 total cpu time :    23.4 secs   av.it.:  10.5
      thresh= 4.574E-05 alpha_mix =  0.700 |ddv_scf|^2 =  7.367E-09

      iter #   3 total cpu time :    23.9 secs   av.it.:  10.3
      thresh= 8.583E-06 alpha_mix =  0.700 |ddv_scf|^2 =  2.279E-11

      iter #   4 total cpu time :    24.3 secs   av.it.:  10.5
      thresh= 4.774E-07 alpha_mix =  0.700 |ddv_scf|^2 =  7.917E-13

     End of self-consistent calculation

     Convergence has been achieved 


     Representation #   6 mode #   6

     Self-consistent Calculation

      iter #   1 total cpu time :    24.7 secs   av.it.:   6.8
      thresh= 1.000E-02 alpha_mix =  0.700 |ddv_scf|^2 =  2.452E-06

      iter #   2 total cpu time :    25.2 secs   av.it.:  10.7
      thresh= 1.566E-04 alpha_mix =  0.700 |ddv_scf|^2 =  1.453E-07

      iter #   3 total cpu time :    25.7 secs   av.it.:  10.2
      thresh= 3.812E-05 alpha_mix =  0.700 |ddv_scf|^2 =  5.402E-11

      iter #   4 total cpu time :    26.2 secs   av.it.:  10.3
      thresh= 7.350E-07 alpha_mix =  0.700 |ddv_scf|^2 =  1.991E-12

      iter #   5 total cpu time :    26.6 secs   av.it.:  10.2
      thresh= 1.411E-07 alpha_mix =  0.700 |ddv_scf|^2 =  2.356E-15

     End of self-consistent calculation

     Convergence has been achieved 

     Number of q in the star =    3
     List of q in the star:
          1   0.000000000  -0.384900212   0.000000000
          2  -0.333333362   0.192450106   0.000000000
          3   0.333333362   0.192450106   0.000000000
     In addition there is the -q list: 
          1  -0.000000000   0.384900212  -0.000000000
          2   0.333333362  -0.192450106  -0.000000000
          3  -0.333333362  -0.192450106  -0.000000000

          Dielectric constant in cartesian axis 

          (       2.029453285       0.000000000      -0.000000000 )
          (       0.000000000       2.029453285      -0.000000000 )
          (      -0.000000000      -0.000000000       1.132021423 )

          Effective charges (d Force / dE) in cartesian axis without acoustic sum rule applied (asr)

           atom      1   B  Mean Z*:        0.73316
      Ex  (        0.00000        0.00000        0.00000 )
      Ey  (        0.00000        0.00000        0.00000 )
      Ez  (        0.00000        0.00000        2.19948 )
           atom      2   N  Mean Z*:        0.59273
      Ex  (        0.00000        0.00000        0.00000 )
      Ey  (            NaN        0.00000        0.00000 )
      Ez  (        0.00000        0.00000        1.77818 )

          Effective charges Sum: Mean:        1.32589
              0.00000            NaN        0.00000
              0.00000        0.00000        0.00000
              0.00000        0.00000        3.97766

          Effective charges (d Force / dE) in cartesian axis with asr applied: 
           atom      1   B  Mean Z*:        0.07022
      E*x (        0.00000        0.00000        0.00000 )
      E*y (            NaN        0.00000       -0.00000 )
      E*z (        0.00000        0.00000        0.21065 )
           atom      2   N  Mean Z*:       -0.07022
      E*x (       -0.00000        0.00000        0.00000 )
      E*y (            NaN        0.00000        0.00000 )
      E*z (        0.00000        0.00000       -0.21065 )

     Diagonalizing the dynamical matrix

     q = (    0.000000000  -0.384900212   0.000000000 ) 

 **************************************************************************
     freq (    1) =       5.928556 [THz] =     197.755355 [cm-1]
     freq (    2) =      14.719124 [THz] =     490.977129 [cm-1]
     freq (    3) =      21.592772 [THz] =     720.257337 [cm-1]
     freq (    4) =      27.950522 [THz] =     932.329048 [cm-1]
     freq (    5) =      40.418611 [THz] =    1348.219732 [cm-1]
     freq (    6) =      44.453500 [THz] =    1482.809139 [cm-1]
 **************************************************************************

     Mode symmetry, C_2v (mm2)  point group:

     freq (   1-   1) =        197.8  [cm-1]   --> B_2  D_4  S_4      
     freq (   2-   2) =        491.0  [cm-1]   --> B_1  D_3  S_3      
     freq (   3-   3) =        720.3  [cm-1]   --> B_2  D_4  S_4      
     freq (   4-   4) =        932.3  [cm-1]   --> A_1  D_1  S_1      
     freq (   5-   5) =       1348.2  [cm-1]   --> B_1  D_3  S_3      
     freq (   6-   6) =       1482.8  [cm-1]   --> A_1  D_1  S_1      

     Calculation of q =   -0.3333334  -0.5773504   0.0000000

     G-vector sticks info
     --------------------
     sticks:   dense  smooth     PW     G-vecs:    dense   smooth      PW
     Sum         313     313    109                27687    27687    5889

     Using Slab Decomposition


     Title: 
     bn_dvscf                                                                   


     bravais-lattice index     =            4
     lattice parameter (alat)  =       4.7168  a.u.
     unit-cell volume          =     578.0146 (a.u.)^3
     number of atoms/cell      =            2
     number of atomic types    =            2
     number of electrons       =         8.00
     number of Kohn-Sham states=            8
     kinetic-energy cutoff     =      50.0000  Ry
     charge density cutoff     =     200.0000  Ry
     Exchange-correlation= PZ
                           (   1   1   0   0   0   0   0)

     celldm(1)=   4.716756  celldm(2)=   0.000000  celldm(3)=   6.360303
     celldm(4)=   0.000000  celldm(5)=   0.000000  celldm(6)=   0.000000

     crystal axes: (cart. coord. in units of alat)
               a(1) = (   1.000000   0.000000   0.000000 )  
               a(2) = (  -0.500000   0.866025   0.000000 )  
               a(3) = (   0.000000   0.000000   6.360303 )  

     reciprocal axes: (cart. coord. in units 2 pi/alat)
               b(1) = (  1.000000  0.577350 -0.000000 )  
               b(2) = (  0.000000  1.154701  0.000000 )  
               b(3) = (  0.000000 -0.000000  0.157225 )  


     PseudoPot. # 1 for B  read from file:
     ../../psps/B.pz-vbc.UPF
     MD5 check sum: b59596b5d63edeea6a2b3a0beace49c5
     Pseudo is Norm-conserving, Zval =  3.0
     Generated by new atomic code, or converted to UPF format
     Using radial grid of  157 points,  1 beta functions with: 
                l(1) =   0

     PseudoPot. # 2 for N  read from file:
     ../../psps/N.pz-vbc.UPF
     MD5 check sum: f7a51f6f78412844d17f6e69b370b417
     Pseudo is Norm-conserving, Zval =  5.0
     Generated by new atomic code, or converted to UPF format
     Using radial grid of  161 points,  1 beta functions with: 
                l(1) =   0

     atomic species   valence    mass     pseudopotential
        B              3.00    10.81100     B ( 1.00)
        N              5.00    14.00600     N ( 1.00)

     12 Sym. Ops. (no inversion) found


                                    s                        frac. trans.

      isym =  1     identity                                     

 cryst.   s( 1) = (     1          0          0      )
                  (     0          1          0      )
                  (     0          0          1      )

 cart.    s( 1) = (  1.0000000  0.0000000  0.0000000 )
                  (  0.0000000  1.0000000  0.0000000 )
                  (  0.0000000  0.0000000  1.0000000 )


      isym =  2     inv. 180 deg rotation - cart. axis [0,0,1]   

 cryst.   s( 2) = (     1          0          0      )
                  (     0          1          0      )
                  (     0          0         -1      )

 cart.    s( 2) = (  1.0000000  0.0000000  0.0000000 )
                  (  0.0000000  1.0000000  0.0000000 )
                  (  0.0000000  0.0000000 -1.0000000 )


      isym =  3     inv. 60 deg rotation - cryst. axis [0,0,1]   

 cryst.   s( 3) = (    -1         -1          0      )
                  (     1          0          0      )
                  (     0          0         -1      )

 cart.    s( 3) = ( -0.5000000  0.8660254  0.0000000 )
                  ( -0.8660254 -0.5000000  0.0000000 )
                  (  0.0000000  0.0000000 -1.0000000 )


      isym =  4     inv. 60 deg rotation - cryst. axis [0,0,-1]  

 cryst.   s( 4) = (     0          1          0      )
                  (    -1         -1          0      )
                  (     0          0         -1      )

 cart.    s( 4) = ( -0.5000000 -0.8660254  0.0000000 )
                  (  0.8660254 -0.5000000  0.0000000 )
                  (  0.0000000  0.0000000 -1.0000000 )


      isym =  5     120 deg rotation - cryst. axis [0,0,1]       

 cryst.   s( 5) = (     0          1          0      )
                  (    -1         -1          0      )
                  (     0          0          1      )

 cart.    s( 5) = ( -0.5000000 -0.8660254  0.0000000 )
                  (  0.8660254 -0.5000000  0.0000000 )
                  (  0.0000000  0.0000000  1.0000000 )


      isym =  6     120 deg rotation - cryst. axis [0,0,-1]      

 cryst.   s( 6) = (    -1         -1          0      )
                  (     1          0          0      )
                  (     0          0          1      )

 cart.    s( 6) = ( -0.5000000  0.8660254  0.0000000 )
                  ( -0.8660254 -0.5000000  0.0000000 )
                  (  0.0000000  0.0000000  1.0000000 )


      isym =  7     180 deg rotation - cart. axis [0,1,0]        

 cryst.   s( 7) = (    -1          0          0      )
                  (     1          1          0      )
                  (     0          0         -1      )

 cart.    s( 7) = ( -1.0000000  0.0000000  0.0000000 )
                  (  0.0000000  1.0000000  0.0000000 )
                  (  0.0000000  0.0000000 -1.0000000 )


      isym =  8     inv. 180 deg rotation - cart. axis [1,0,0]   

 cryst.   s( 8) = (    -1          0          0      )
                  (     1          1          0      )
                  (     0          0          1      )

 cart.    s( 8) = ( -1.0000000  0.0000000  0.0000000 )
                  (  0.0000000  1.0000000  0.0000000 )
                  (  0.0000000  0.0000000  1.0000000 )


      isym =  9     180 deg rotation - cryst. axis [1,-1,0]      

 cryst.   s( 9) = (     0         -1          0      )
                  (    -1          0          0      )
                  (     0          0         -1      )

 cart.    s( 9) = (  0.5000000 -0.8660254  0.0000000 )
                  ( -0.8660254 -0.5000000  0.0000000 )
                  (  0.0000000  0.0000000 -1.0000000 )


      isym = 10     180 deg rotation - cryst. axis [2,1,0]       

 cryst.   s(10) = (     1          1          0      )
                  (     0         -1          0      )
                  (     0          0         -1      )

 cart.    s(10) = (  0.5000000  0.8660254  0.0000000 )
                  (  0.8660254 -0.5000000  0.0000000 )
                  (  0.0000000  0.0000000 -1.0000000 )


      isym = 11     inv. 180 deg rotation - cryst. axis [0,1,0]  

 cryst.   s(11) = (     1          1          0      )
                  (     0         -1          0      )
                  (     0          0          1      )

 cart.    s(11) = (  0.5000000  0.8660254  0.0000000 )
                  (  0.8660254 -0.5000000  0.0000000 )
                  (  0.0000000  0.0000000  1.0000000 )


      isym = 12     inv. 180 deg rotation - cryst. axis [1,1,0]  

 cryst.   s(12) = (     0         -1          0      )
                  (    -1          0          0      )
                  (     0          0          1      )

 cart.    s(12) = (  0.5000000 -0.8660254  0.0000000 )
                  ( -0.8660254 -0.5000000  0.0000000 )
                  (  0.0000000  0.0000000  1.0000000 )


     point group D_3h (-62m)
     there are  6 classes
     the character table:

       E     2C3   3C2   s_h   2S3   3s_v 
A'_1   1.00  1.00  1.00  1.00  1.00  1.00
A'_2   1.00  1.00 -1.00  1.00  1.00 -1.00
E'     2.00 -1.00  0.00  2.00 -1.00  0.00
A''1   1.00  1.00  1.00 -1.00 -1.00 -1.00
A''2   1.00  1.00 -1.00 -1.00 -1.00  1.00
E''    2.00 -1.00  0.00 -2.00  1.00  0.00

     the symmetry operations in each class and the name of the first element:

     E        1
          identity                                               
     2C3      5    6
          120 deg rotation - cryst. axis [0,0,1]                 
     3C2      7    9   10
          180 deg rotation - cart. axis [0,1,0]                  
     s_h      2
          inv. 180 deg rotation - cart. axis [0,0,1]             
     2S3      3    4
          inv. 60 deg rotation - cryst. axis [0,0,1]             
     3s_v     8   12   11
          inv. 180 deg rotation - cart. axis [1,0,0]             

   Cartesian axes

     site n.     atom                  positions (alat units)
         1           B   tau(   1) = (   0.5000000   0.2886751   0.0000000  )
         2           N   tau(   2) = (  -0.5000000  -0.2886751   0.0000000  )

   Crystallographic axes

     site n.     atom                  positions (cryst. coord.)
         1           B   tau(   1) = (  0.6666667  0.3333333  0.0000000  )
         2           N   tau(   2) = ( -0.6666667 -0.3333333  0.0000000  )

     number of k points=    10
                       cart. coord. in units 2pi/alat
        k(    1) = (   0.0000000   0.0000000   0.0000000), wk =   0.2222222
        k(    2) = (  -0.3333334  -0.5773504   0.0000000), wk =   0.0000000
        k(    3) = (   0.0000000   0.3849002   0.0000000), wk =   0.6666667
        k(    4) = (  -0.3333334  -0.1924502   0.0000000), wk =   0.0000000
        k(    5) = (   0.3333333   0.5773503   0.0000000), wk =   0.2222222
        k(    6) = (  -0.0000000  -0.0000001   0.0000000), wk =   0.0000000
        k(    7) = (   0.0000000  -0.3849002   0.0000000), wk =   0.6666667
        k(    8) = (  -0.3333334  -0.9622506   0.0000000), wk =   0.0000000
        k(    9) = (  -0.3333333   0.5773503   0.0000000), wk =   0.2222222
        k(   10) = (  -0.6666667  -0.0000001   0.0000000), wk =   0.0000000

                       cryst. coord.
        k(    1) = (   0.0000000   0.0000000   0.0000000), wk =   0.2222222
        k(    2) = (  -0.3333334  -0.3333334   0.0000000), wk =   0.0000000
        k(    3) = (   0.0000000   0.3333333   0.0000000), wk =   0.6666667
        k(    4) = (  -0.3333334  -0.0000001   0.0000000), wk =   0.0000000
        k(    5) = (   0.3333333   0.3333333   0.0000000), wk =   0.2222222
        k(    6) = (  -0.0000000  -0.0000001   0.0000000), wk =   0.0000000
        k(    7) = (   0.0000000  -0.3333333   0.0000000), wk =   0.6666667
        k(    8) = (  -0.3333334  -0.6666667   0.0000000), wk =   0.0000000
        k(    9) = (  -0.3333333   0.6666667   0.0000000), wk =   0.2222222
        k(   10) = (  -0.6666667   0.3333333   0.0000000), wk =   0.0000000

     Dense  grid:    27687 G-vectors     FFT dimensions: (  24,  24, 135)

     Dynamical RAM for                 wfc:       0.42 MB

     Dynamical RAM for     wfc (w. buffer):       0.42 MB

     Dynamical RAM for           str. fact:       0.84 MB

     Dynamical RAM for           local pot:       0.02 MB

     Dynamical RAM for          nlocal pot:       0.11 MB

     Dynamical RAM for                qrad:       0.03 MB

     Dynamical RAM for          rho,v,vnew:       3.05 MB

     Dynamical RAM for           G-vectors:       1.80 MB

     Dynamical RAM for          h,s,v(r/c):       0.05 MB

     Dynamical RAM for          <psi|beta>:       0.00 MB

     Dynamical RAM for                 psi:       1.69 MB

     Dynamical RAM for                hpsi:       1.69 MB

     Dynamical RAM for      wfcinit/wfcrot:       0.84 MB

     Estimated static dynamical RAM per process >      10.50 MB

     Estimated max dynamical RAM per process >      13.91 MB
 ----2D----2D----2D----2D----2D----2D----2D----2D----2D----2D----2D----2D
  The code is running with the 2D cutoff
  Please refer to:
  Sohier, T., Calandra, M., & Mauri, F. (2017), 
  Density functional perturbation theory for gated two-dimensional heterostructures:
  Theoretical developments and application to flexural phonons in graphene.
  Physical Review B, 96(7), 75448. https://doi.org/10.1103/PhysRevB.96.075448
 ----2D----2D----2D----2D----2D----2D----2D----2D----2D----2D----2D----2D

     The potential is recalculated from file :
     ./_ph0/bn.save/charge-density

     Starting wfcs are    8 atomic wfcs

     Band Structure Calculation
     Davidson diagonalization with overlap

     Computing kpt #:     1
     total cpu time spent up to now is        2.7 secs

     Computing kpt #:     2
     total cpu time spent up to now is        2.9 secs

     Computing kpt #:     3
     total cpu time spent up to now is        3.1 secs

     Computing kpt #:     4
     total cpu time spent up to now is        3.3 secs

     Computing kpt #:     5
     total cpu time spent up to now is        3.5 secs

     Computing kpt #:     6
     total cpu time spent up to now is        3.7 secs

     Computing kpt #:     7
     total cpu time spent up to now is        3.9 secs

     Computing kpt #:     8
     total cpu time spent up to now is        4.1 secs

     Computing kpt #:     9
     total cpu time spent up to now is        4.3 secs

     Computing kpt #:    10
     total cpu time spent up to now is        4.5 secs

     ethr =  1.25E-10,  avg # of iterations = 19.6

     total cpu time spent up to now is        4.5 secs

     End of band structure calculation

          k = 0.0000 0.0000 0.0000 (  3439 PWs)   bands (ev):

   -23.8293 -11.4720  -7.4058  -7.4058  -1.3437  -0.1736   1.1693   2.0178

     occupation numbers 
     1.0000   1.0000   1.0000   1.0000   0.0000   0.0000   0.0000   0.0000

          k =-0.3333-0.5774 0.0000 (  3459 PWs)   bands (ev):

   -20.1232 -14.1881 -13.2063  -6.0199  -1.5502   7.3513   8.4684   9.2047

     occupation numbers 
     0.0000   0.0000   0.0000   0.0000   0.0000   0.0000   0.0000   0.0000

          k = 0.0000 0.3849 0.0000 (  3453 PWs)   bands (ev):

   -21.8756 -12.9939  -9.7277  -8.7509   0.9542   2.0039   3.6092   4.1907

     occupation numbers 
     1.0000   1.0000   1.0000   1.0000   0.0000   0.0000   0.0000   0.0000

          k =-0.3333-0.1925 0.0000 (  3453 PWs)   bands (ev):

   -21.8756 -12.9939  -9.7277  -8.7509   0.9542   2.0039   3.6092   4.1907

     occupation numbers 
     0.0000   0.0000   0.0000   0.0000   0.0000   0.0000   0.0000   0.0000

          k = 0.3333 0.5774 0.0000 (  3459 PWs)   bands (ev):

   -20.1232 -14.1881 -13.2063  -6.0199  -1.5502   7.3513   8.4684   9.2047

     occupation numbers 
     1.0000   1.0000   1.0000   1.0000   0.0000   0.0000   0.0000   0.0000

          k =-0.0000-0.0000 0.0000 (  3439 PWs)   bands (ev):

   -23.8293 -11.4720  -7.4058  -7.4058  -1.3437  -0.1736   1.1693   2.0178

     occupation numbers 
     0.0000   0.0000   0.0000   0.0000   0.0000   0.0000   0.0000   0.0000

          k = 0.0000-0.3849 0.0000 (  3453 PWs)   bands (ev):

   -21.8756 -12.9939  -9.7277  -8.7509   0.9542   2.0039   3.6092   4.1907

     occupation numbers 
     1.0000   1.0000   1.0000   1.0000   0.0000   0.0000   0.0000   0.0000

          k =-0.3333-0.9623 0.0000 (  3453 PWs)   bands (ev):

   -21.8756 -12.9939  -9.7277  -8.7509   0.9542   2.0039   3.6092   4.1907

     occupation numbers 
     0.0000   0.0000   0.0000   0.0000   0.0000   0.0000   0.0000   0.0000

          k =-0.3333 0.5774 0.0000 (  3459 PWs)   bands (ev):

   -20.1232 -14.1881 -13.2063  -6.0199  -1.5502   7.3513   8.4684   9.2047

     occupation numbers 
     1.0000   1.0000   1.0000   1.0000   0.0000   0.0000   0.0000   0.0000

          k =-0.6667-0.0000 0.0000 (  3459 PWs)   bands (ev):

   -20.1232 -14.1881 -13.2063  -6.0199  -1.5502   7.3513   8.4684   9.2047

     occupation numbers 
     0.0000   0.0000   0.0000   0.0000   0.0000   0.0000   0.0000   0.0000

     highest occupied, lowest unoccupied level (ev):    -6.0199   -1.5502

     Writing config to output data dir ./_ph0/bn.save/

     bn_dvscf                                                                   

     bravais-lattice index     =            4
     lattice parameter (alat)  =       4.7168  a.u.
     unit-cell volume          =     578.0146 (a.u.)^3
     number of atoms/cell      =            2
     number of atomic types    =            2
     kinetic-energy cut-off    =      50.0000  Ry
     charge density cut-off    =     200.0000  Ry
     convergence threshold     =      1.0E-12
[...]
                  (  0.0000000  0.0000000 -1.0000000 )


      isym =  4     inv. 60 deg rotation - cryst. axis [0,0,-1]  

 cryst.   s( 4) = (     0          1          0      )
                  (    -1         -1          0      )
                  (     0          0         -1      )

 cart.    s( 4) = ( -0.5000000 -0.8660254  0.0000000 )
                  (  0.8660254 -0.5000000  0.0000000 )
                  (  0.0000000  0.0000000 -1.0000000 )


      isym =  5     120 deg rotation - cryst. axis [0,0,1]       

 cryst.   s( 5) = (     0          1          0      )
                  (    -1         -1          0      )
                  (     0          0          1      )

 cart.    s( 5) = ( -0.5000000 -0.8660254  0.0000000 )
                  (  0.8660254 -0.5000000  0.0000000 )
                  (  0.0000000  0.0000000  1.0000000 )


      isym =  6     120 deg rotation - cryst. axis [0,0,-1]      

 cryst.   s( 6) = (    -1         -1          0      )
                  (     1          0          0      )
                  (     0          0          1      )

 cart.    s( 6) = ( -0.5000000  0.8660254  0.0000000 )
                  ( -0.8660254 -0.5000000  0.0000000 )
                  (  0.0000000  0.0000000  1.0000000 )


     G cutoff =  112.7086  (  27687 G-vectors)     FFT grid: ( 24, 24,135)
     number of k points=    10
                       cart. coord. in units 2pi/alat
        k(    1) = (   0.0000000   0.0000000   0.0000000), wk =   0.2222222
        k(    2) = (  -0.3333334  -0.5773504   0.0000000), wk =   0.0000000
        k(    3) = (   0.0000000   0.3849002   0.0000000), wk =   0.6666667
        k(    4) = (  -0.3333334  -0.1924502   0.0000000), wk =   0.0000000
        k(    5) = (   0.3333333   0.5773503   0.0000000), wk =   0.2222222
        k(    6) = (  -0.0000000  -0.0000001   0.0000000), wk =   0.0000000
        k(    7) = (   0.0000000  -0.3849002   0.0000000), wk =   0.6666667
        k(    8) = (  -0.3333334  -0.9622506   0.0000000), wk =   0.0000000
        k(    9) = (  -0.3333333   0.5773503   0.0000000), wk =   0.2222222
        k(   10) = (  -0.6666667  -0.0000001   0.0000000), wk =   0.0000000

                       cryst. coord.
        k(    1) = (   0.0000000   0.0000000   0.0000000), wk =   0.2222222
        k(    2) = (  -0.3333334  -0.3333334   0.0000000), wk =   0.0000000
        k(    3) = (   0.0000000   0.3333333   0.0000000), wk =   0.6666667
        k(    4) = (  -0.3333334  -0.0000001   0.0000000), wk =   0.0000000
        k(    5) = (   0.3333333   0.3333333   0.0000000), wk =   0.2222222
        k(    6) = (  -0.0000000  -0.0000001   0.0000000), wk =   0.0000000
        k(    7) = (   0.0000000  -0.3333333   0.0000000), wk =   0.6666667
        k(    8) = (  -0.3333334  -0.6666667   0.0000000), wk =   0.0000000
        k(    9) = (  -0.3333333   0.6666667   0.0000000), wk =   0.2222222
        k(   10) = (  -0.6666667   0.3333333   0.0000000), wk =   0.0000000

     PseudoPot. # 1 for B  read from file:
     ../../psps/B.pz-vbc.UPF
     MD5 check sum: b59596b5d63edeea6a2b3a0beace49c5
     Pseudo is Norm-conserving, Zval =  3.0
     Generated by new atomic code, or converted to UPF format
     Using radial grid of  157 points,  1 beta functions with: 
                l(1) =   0

     PseudoPot. # 2 for N  read from file:
     ../../psps/N.pz-vbc.UPF
     MD5 check sum: f7a51f6f78412844d17f6e69b370b417
     Pseudo is Norm-conserving, Zval =  5.0
     Generated by new atomic code, or converted to UPF format
     Using radial grid of  161 points,  1 beta functions with: 
                l(1) =   0

     point group C_3h (-6)  
     there are  6 classes
     the character table:

       E     C3    C3^2  s_h   S3    S3^5 
A'     1.00  1.00  1.00  1.00  1.00  1.00
E'     1.00 -0.50 -0.50  1.00 -0.50 -0.50
E'*    1.00 -0.50 -0.50  1.00 -0.50 -0.50
A''    1.00  1.00  1.00 -1.00 -1.00 -1.00
E''    1.00 -0.50 -0.50 -1.00  0.50  0.50
E''*   1.00 -0.50 -0.50 -1.00  0.50  0.50
     imaginary part
A'     0.00  0.00  0.00  0.00  0.00  0.00
E'     0.00  0.87 -0.87  0.00  0.87 -0.87
E'*    0.00 -0.87  0.87  0.00 -0.87  0.87
A''    0.00  0.00  0.00  0.00  0.00  0.00
E''    0.00  0.87 -0.87  0.00 -0.87  0.87
E''*   0.00 -0.87  0.87  0.00  0.87 -0.87

     the symmetry operations in each class and the name of the first element:

     E        1
          identity                                               
     C3       5
          180 deg rotation - cart. axis [0,1,0]                  
     C3^2     6
          inv. 180 deg rotation - cart. axis [1,0,0]             
     s_h      2
          inv. 180 deg rotation - cart. axis [0,0,1]             
     S3       4
          120 deg rotation - cryst. axis [0,0,1]                 
     S3^5     3
          inv. 60 deg rotation - cryst. axis [0,0,1]             


     Electric field:
     Dielectric constant
     Born effective charges as d Force / d E


     Atomic displacements:
     There are    6 irreducible representations

     Representation     1      1 modes -  To be done
     Irreps are as follows:

                     mode #   1
                     (  -0.00000  -0.00000   ) 
                     (  -0.00000  -0.00000   ) 
                     (  -0.00000  -0.00000   ) 
                     (  -0.70711  -0.00000   ) 
                     (  -0.00000  -0.70711   ) 
                     (  -0.00000  -0.00000   ) 

     Representation     2      1 modes -  To be done
     Irreps are as follows:

                     mode #   2
                     (  -0.70711   0.00000   ) 
                     (  -0.00000   0.70711   ) 
                     (  -0.00000  -0.00000   ) 
                     (  -0.00000  -0.00000   ) 
                     (  -0.00000  -0.00000   ) 
                     (  -0.00000  -0.00000   ) 

     Representation     3      1 modes -  To be done
     Irreps are as follows:

                     mode #   3
                     (  -0.70711  -0.00000   ) 
                     (   0.00000  -0.70711   ) 
                     (  -0.00000  -0.00000   ) 
                     (  -0.00000  -0.00000   ) 
                     (  -0.00000  -0.00000   ) 
                     (  -0.00000  -0.00000   ) 

     Representation     4      1 modes -  To be done
     Irreps are as follows:

                     mode #   4
                     (  -0.00000  -0.00000   ) 
                     (  -0.00000  -0.00000   ) 
                     (  -0.00000  -0.00000   ) 
                     (  -0.70711  -0.00000   ) 
                     (  -0.00000   0.70711   ) 
                     (  -0.00000  -0.00000   ) 

     Representation     5      1 modes -  To be done
     Irreps are as follows:

                     mode #   5
                     (  -0.00000  -0.00000   ) 
                     (  -0.00000  -0.00000   ) 
                     (  -0.00000  -0.00000   ) 
                     (  -0.00000  -0.00000   ) 
                     (  -0.00000  -0.00000   ) 
                     (  -1.00000  -0.00000   ) 

     Representation     6      1 modes -  To be done
     Irreps are as follows:

                     mode #   6
                     (  -0.00000   0.00000   ) 
                     (  -0.00000   0.00000   ) 
                     (  -1.00000  -0.00000   ) 
                     (  -0.00000  -0.00000   ) 
                     (  -0.00000  -0.00000   ) 
                     (  -0.00000  -0.00000   ) 



     Alpha used in Ewald sum =   2.1000
     PHONON       :     28.07s CPU     28.71s WALL


          Dielectric constant in cartesian axis 

          (       2.029453285       0.000000000      -0.000000000 )
          (       0.000000000       2.029453285      -0.000000000 )
          (      -0.000000000      -0.000000000       1.132021423 )

          Effective charges (d Force / dE) in cartesian axis without acoustic sum rule applied (asr)

           atom      1   B  Mean Z*:        0.73316
      Ex  (        0.00000        0.00000        0.00000 )
      Ey  (        0.00000        0.00000        0.00000 )
      Ez  (        0.00000        0.00000        2.19948 )
           atom      2   N  Mean Z*:        0.59273
      Ex  (        0.00000        0.00000        0.00000 )
      Ey  (            NaN        0.00000        0.00000 )
      Ez  (        0.00000        0.00000        1.77818 )

          Effective charges Sum: Mean:        1.32589
              0.00000            NaN        0.00000
              0.00000        0.00000        0.00000
              0.00000        0.00000        3.97766

          Effective charges (d Force / dE) in cartesian axis with asr applied: 
           atom      1   B  Mean Z*:        0.07022
      E*x (        0.00000        0.00000        0.00000 )
      E*y (            NaN        0.00000       -0.00000 )
      E*z (        0.00000        0.00000        0.21065 )
           atom      2   N  Mean Z*:       -0.07022
      E*x (       -0.00000        0.00000        0.00000 )
      E*y (            NaN        0.00000        0.00000 )
      E*z (        0.00000        0.00000       -0.21065 )


     Representation #   1 mode #   1

     Self-consistent Calculation

      iter #   1 total cpu time :    29.1 secs   av.it.:   6.6
      thresh= 1.000E-02 alpha_mix =  0.700 |ddv_scf|^2 =  3.238E-06

      iter #   2 total cpu time :    29.5 secs   av.it.:  10.2
      thresh= 1.799E-04 alpha_mix =  0.700 |ddv_scf|^2 =  3.904E-07

      iter #   3 total cpu time :    29.9 secs   av.it.:   9.8
      thresh= 6.249E-05 alpha_mix =  0.700 |ddv_scf|^2 =  1.210E-10

      iter #   4 total cpu time :    30.3 secs   av.it.:   9.8
      thresh= 1.100E-06 alpha_mix =  0.700 |ddv_scf|^2 =  9.661E-13

     End of self-consistent calculation

     Convergence has been achieved 


     Representation #   2 mode #   2

     Self-consistent Calculation

      iter #   1 total cpu time :    30.6 secs   av.it.:   5.6
      thresh= 1.000E-02 alpha_mix =  0.700 |ddv_scf|^2 =  4.468E-07

      iter #   2 total cpu time :    31.0 secs   av.it.:   9.8
      thresh= 6.684E-05 alpha_mix =  0.700 |ddv_scf|^2 =  4.996E-08

      iter #   3 total cpu time :    31.4 secs   av.it.:   9.8
      thresh= 2.235E-05 alpha_mix =  0.700 |ddv_scf|^2 =  2.773E-11

      iter #   4 total cpu time :    31.8 secs   av.it.:  10.0
      thresh= 5.266E-07 alpha_mix =  0.700 |ddv_scf|^2 =  2.396E-13

     End of self-consistent calculation

     Convergence has been achieved 


     Representation #   3 mode #   3

     Self-consistent Calculation

      iter #   1 total cpu time :    32.1 secs   av.it.:   6.4
      thresh= 1.000E-02 alpha_mix =  0.700 |ddv_scf|^2 =  9.232E-07

      iter #   2 total cpu time :    32.5 secs   av.it.:  10.2
      thresh= 9.609E-05 alpha_mix =  0.700 |ddv_scf|^2 =  9.882E-07

      iter #   3 total cpu time :    32.9 secs   av.it.:   9.4
      thresh= 9.941E-05 alpha_mix =  0.700 |ddv_scf|^2 =  3.565E-09

      iter #   4 total cpu time :    33.3 secs   av.it.:   9.6
      thresh= 5.970E-06 alpha_mix =  0.700 |ddv_scf|^2 =  2.532E-12

      iter #   5 total cpu time :    33.7 secs   av.it.:   9.8
      thresh= 1.591E-07 alpha_mix =  0.700 |ddv_scf|^2 =  4.890E-13

     End of self-consistent calculation

     Convergence has been achieved 


     Representation #   4 mode #   4

     Self-consistent Calculation

      iter #   1 total cpu time :    34.0 secs   av.it.:   6.6
      thresh= 1.000E-02 alpha_mix =  0.700 |ddv_scf|^2 =  4.634E-06

      iter #   2 total cpu time :    34.4 secs   av.it.:   9.8
      thresh= 2.153E-04 alpha_mix =  0.700 |ddv_scf|^2 =  1.626E-06

      iter #   3 total cpu time :    34.8 secs   av.it.:   9.6
      thresh= 1.275E-04 alpha_mix =  0.700 |ddv_scf|^2 =  2.161E-10

      iter #   4 total cpu time :    35.2 secs   av.it.:  10.2
      thresh= 1.470E-06 alpha_mix =  0.700 |ddv_scf|^2 =  3.148E-12

      iter #   5 total cpu time :    35.6 secs   av.it.:  10.0
      thresh= 1.774E-07 alpha_mix =  0.700 |ddv_scf|^2 =  5.863E-14

     End of self-consistent calculation

     Convergence has been achieved 


     Representation #   5 mode #   5

     Self-consistent Calculation

      iter #   1 total cpu time :    36.0 secs   av.it.:   6.8
      thresh= 1.000E-02 alpha_mix =  0.700 |ddv_scf|^2 =  9.719E-07

      iter #   2 total cpu time :    36.4 secs   av.it.:  10.4
      thresh= 9.859E-05 alpha_mix =  0.700 |ddv_scf|^2 =  1.325E-08

      iter #   3 total cpu time :    36.8 secs   av.it.:  10.4
      thresh= 1.151E-05 alpha_mix =  0.700 |ddv_scf|^2 =  3.213E-11

      iter #   4 total cpu time :    37.2 secs   av.it.:  10.2
      thresh= 5.669E-07 alpha_mix =  0.700 |ddv_scf|^2 =  1.365E-13

     End of self-consistent calculation

     Convergence has been achieved 


     Representation #   6 mode #   6

     Self-consistent Calculation

      iter #   1 total cpu time :    37.6 secs   av.it.:   5.0
      thresh= 1.000E-02 alpha_mix =  0.700 |ddv_scf|^2 =  3.495E-08

      iter #   2 total cpu time :    38.0 secs   av.it.:   9.6
      thresh= 1.870E-05 alpha_mix =  0.700 |ddv_scf|^2 =  1.487E-10

      iter #   3 total cpu time :    38.3 secs   av.it.:   9.6
      thresh= 1.219E-06 alpha_mix =  0.700 |ddv_scf|^2 =  3.877E-12

      iter #   4 total cpu time :    38.7 secs   av.it.:   8.8
      thresh= 1.969E-07 alpha_mix =  0.700 |ddv_scf|^2 =  8.468E-16

     End of self-consistent calculation

     Convergence has been achieved 

     Number of q in the star =    2
     List of q in the star:
          1  -0.333333373  -0.577350378   0.000000000
          2   0.333333373  -0.577350378  -0.000000000

          Dielectric constant in cartesian axis 

          (       2.029453285       0.000000000      -0.000000000 )
          (       0.000000000       2.029453285      -0.000000000 )
          (      -0.000000000      -0.000000000       1.132021423 )

          Effective charges (d Force / dE) in cartesian axis without acoustic sum rule applied (asr)

           atom      1   B  Mean Z*:        0.73316
      Ex  (        0.00000        0.00000        0.00000 )
      Ey  (        0.00000        0.00000        0.00000 )
      Ez  (        0.00000        0.00000        2.19948 )
           atom      2   N  Mean Z*:        0.59273
      Ex  (        0.00000        0.00000        0.00000 )
      Ey  (            NaN        0.00000        0.00000 )
      Ez  (        0.00000        0.00000        1.77818 )

          Effective charges Sum: Mean:        1.32589
              0.00000            NaN        0.00000
              0.00000        0.00000        0.00000
              0.00000        0.00000        3.97766

          Effective charges (d Force / dE) in cartesian axis with asr applied: 
           atom      1   B  Mean Z*:        0.07022
      E*x (        0.00000        0.00000        0.00000 )
      E*y (            NaN        0.00000       -0.00000 )
      E*z (        0.00000        0.00000        0.21065 )
           atom      2   N  Mean Z*:       -0.07022
      E*x (       -0.00000        0.00000        0.00000 )
      E*y (            NaN        0.00000        0.00000 )
      E*z (        0.00000        0.00000       -0.21065 )

     Diagonalizing the dynamical matrix

     q = (   -0.333333373  -0.577350378   0.000000000 ) 

 **************************************************************************
     freq (    1) =       9.353345 [THz] =     311.994006 [cm-1]
     freq (    2) =      18.382260 [THz] =     613.166194 [cm-1]
     freq (    3) =      26.712057 [THz] =     891.018325 [cm-1]
     freq (    4) =      32.762502 [THz] =    1092.839435 [cm-1]
     freq (    5) =      36.176697 [THz] =    1206.724720 [cm-1]
     freq (    6) =      39.398076 [THz] =    1314.178365 [cm-1]
 **************************************************************************

     Mode symmetry, C_3h (-6)   point group:

     freq (   1-   1) =        312.0  [cm-1]   --> E''                
     freq (   2-   2) =        613.2  [cm-1]   --> E''*               
     freq (   3-   3) =        891.0  [cm-1]   --> A'                 
     freq (   4-   4) =       1092.8  [cm-1]   --> E'*                
     freq (   5-   5) =       1206.7  [cm-1]   --> E'                 
     freq (   6-   6) =       1314.2  [cm-1]   --> A'                 

     PHONON       :     37.94s CPU     38.73s WALL

     INITIALIZATION: 
     phq_setup    :      0.01s CPU      0.01s WALL (       3 calls)
     phq_init     :      0.25s CPU      0.26s WALL (       3 calls)

     phq_init     :      0.25s CPU      0.26s WALL (       3 calls)
     init_vloc    :      0.01s CPU      0.01s WALL (       3 calls)
     init_us_1    :      0.01s CPU      0.01s WALL (       3 calls)
     init_us_2    :      0.05s CPU      0.07s WALL (     594 calls)

     DIELECTRIC CONSTANT AND EFFECTIVE CHARGES:
     solve_e      :      4.20s CPU      4.36s WALL (       1 calls)
     dielec       :      0.00s CPU      0.00s WALL (       1 calls)
     zstar_eu     :      0.21s CPU      0.23s WALL (       1 calls)

     DYNAMICAL MATRIX:
     dynmat0      :      0.10s CPU      0.11s WALL (       3 calls)
     phqscf       :     28.66s CPU     29.20s WALL (       3 calls)
     dynmatrix    :      0.00s CPU      0.00s WALL (       3 calls)

     phqscf       :     28.66s CPU     29.20s WALL (       3 calls)
     solve_linter :     28.47s CPU     28.97s WALL (      16 calls)
     drhodv       :      0.19s CPU      0.22s WALL (      16 calls)

     dynmat0      :      0.10s CPU      0.11s WALL (       3 calls)
     dynmat_us    :      0.08s CPU      0.09s WALL (       3 calls)
     d2ionq       :      0.02s CPU      0.02s WALL (       3 calls)

     dynmat_us    :      0.08s CPU      0.09s WALL (       3 calls)

     phqscf       :     28.66s CPU     29.20s WALL (       3 calls)
     solve_linter :     28.47s CPU     28.97s WALL (      16 calls)

     solve_linter :     28.47s CPU     28.97s WALL (      16 calls)
     dvqpsi_us    :      1.28s CPU      1.31s WALL (     102 calls)
     sth_kernel   :     28.62s CPU     28.99s WALL (      79 calls)
     apply_dpot_b :      1.79s CPU      1.92s WALL (     343 calls)
     ortho        :      0.06s CPU      0.06s WALL (     445 calls)
     cgsolve      :     25.17s CPU     25.34s WALL (     445 calls)
     incdrhoscf   :      2.48s CPU      2.51s WALL (     436 calls)
     dv_of_drho   :      0.39s CPU      0.40s WALL (      99 calls)
     mix_pot      :      0.19s CPU      0.31s WALL (      79 calls)
     psymdvscf    :      1.06s CPU      1.06s WALL (      73 calls)

     dvqpsi_us    :      1.28s CPU      1.31s WALL (     102 calls)
     dvqpsi_us_on :      0.01s CPU      0.01s WALL (     102 calls)

     cgsolve      :     25.17s CPU     25.34s WALL (     445 calls)
     ch_psi       :     24.50s CPU     24.66s WALL (    5157 calls)

     ch_psi       :     24.50s CPU     24.66s WALL (    5157 calls)
     h_psi        :     27.11s CPU     27.30s WALL (    5655 calls)
     last         :      0.84s CPU      0.85s WALL (    5157 calls)

     h_psi        :     27.11s CPU     27.30s WALL (    5655 calls)
     add_vuspsi   :      0.16s CPU      0.16s WALL (    5655 calls)

     incdrhoscf   :      2.48s CPU      2.51s WALL (     436 calls)


      General routines
     calbec       :      0.30s CPU      0.32s WALL (   11297 calls)
     fft          :      0.37s CPU      0.37s WALL (     309 calls)
     ffts         :      0.22s CPU      0.23s WALL (     198 calls)
     fftw         :     29.22s CPU     29.55s WALL (   47382 calls)
     davcio       :      0.26s CPU      0.44s WALL (    2722 calls)
     write_rec    :      0.04s CPU      0.09s WALL (      95 calls)


     PHONON       :     37.94s CPU     38.73s WALL


   This run was terminated on:   0:26: 6   7Apr2022            

=------------------------------------------------------------------------------=
   JOB DONE.
=------------------------------------------------------------------------------=
